 +-------------------------------------------------+
 |                                                 |
 |      CCC   AA    SSS  TTTTT  EEEEE  PPPP        |
 |     C     A  A  S       T    E      P   P       |
 |     C     AAAA   SS     T    EEE    PPPP        |
 |     C     A  A     S    T    E      P           |
 |      CCC  A  A  SSS     T    EEEEE  P           |
 |                                                 |
 +-------------------------------------------------+
 |                                                 |
 | Welcome to Academic Release CASTEP version 16.1 |          
 | Ab Initio Total Energy Program                  |
 |                                                 |
 | Authors:                                        |
 | M. Segall, M. Probert, C. Pickard, P. Hasnip,   |
 | S. Clark, K. Refson, J. R. Yates, M. Payne      |
 |                                                 |
 | Contributors:                                   |
 | P. Lindan, P. Haynes, J. White, V. Milman,      |
 | N. Govind, M. Gibson, P. Tulip, V. Cocula,      |
 | B. Montanari, D. Quigley, M. Glover,            |
 | L. Bernasconi, A. Perlov, M. Plummer,           |
 | E. McNellis, J. Meyer, J. Gale, D. Jochym       |
 | J. Aarons, B. Walker, R. Gillen, D. Jones       |
 | T. Green, I. J. Bush, C. J. Armstrong,          |
 | E. J. Higgins, E. L. Brown, M. S. McFly         |
 |                                                 |
 | Copyright (c) 2000 - 2015                       |
 |                                                 |
 |     Distributed under the terms of an           |
 |     Agreement between the United Kingdom        |
 |     Car-Parrinello (UKCP) Consortium,           |
 |     Daresbury Laboratory and Accelrys, Inc.     |
 |                                                 |
 | Please cite                                     |
 |                                                 |
 |     "First principles methods using CASTEP"     |
 |                                                 |
 |         Zeitschrift fuer Kristallographie       |
 |           220(5-6) pp. 567-570 (2005)           |
 |                                                 |
 | S. J. Clark, M. D. Segall, C. J. Pickard,       |
 | P. J. Hasnip, M. J. Probert, K. Refson,         |
 | M. C. Payne                                     |
 |                                                 |
 |       in all publications arising from          |
 |              your use of CASTEP                 |
 |                                                 |
 +-------------------------------------------------+
 
 
 Compiled for linux_x86_64_ifort14 on Mon, 07 Dec 2015 10:43:21 +0000
 from code version 2756eb6097bf+  Tue, 01 Dec 2015 09:30:30 +0000
 Compiler: Intel Fortran 14.0.0.080; Optimisation: fast
 MATHLIBS: Intel MKL(11.1.0) (LAPACK version 3.4.1)
 FFT Lib : mkl
 Fundamental constants values: CODATA 2010
 
 Run started: Mon, 28 Aug 2017 12:22:31 +0100
 Info: number of up-spin electrons is not equal to the
       number of down-spins but spin_polarized=false
     - consider setting spin_polarized=true.
 Warning in parameters_read: it appears you may not have specified enough 
                           - extra bands so you may have trouble with metals
                           - convergence as a consequence. Suggest you 
                           - consider setting nextra_bands=4 at least.
 
 Pseudo atomic calculation performed for Na 2s2 2p6 3s1
 
 Converged in 13 iterations to a total energy of -1302.5052 eV
 
 Calculation parallelised over 15 processes.
 Data is distributed by G-vector(3-way) and k-point(5-way)

 ************************************ Title ************************************
 

 ***************************** General Parameters ******************************
  
 output verbosity                               : normal  (1)
 write checkpoint data to                       : Na-1CollCode53753.check
 type of calculation                            : geometry optimization
 stress calculation                             : on
 density difference calculation                 : off
 electron localisation func (ELF) calculation   : off
 Hirshfeld analysis                             : off
 unlimited duration calculation
 timing information                             : on
 memory usage estimate                          : on
 write final potential to formatted file        : off
 write final density to formatted file          : off
 write structure in CELL formatted file         : on
 write BibTeX reference list                    : off
 write OTFG pseudopotential files               : on
 checkpoint writing                             : off
  
 output         length unit                     : A
 output           mass unit                     : amu
 output           time unit                     : ps
 output         charge unit                     : e
 output           spin unit                     : hbar/2
 output         energy unit                     : eV
 output          force unit                     : eV/A
 output       velocity unit                     : A/ps
 output       pressure unit                     : GPa
 output     inv_length unit                     : 1/A
 output      frequency unit                     : cm-1
 output force constant unit                     : eV/A**2
 output         volume unit                     : A**3
 output   IR intensity unit                     : (D/A)**2/amu
 output         dipole unit                     : D
 output         efield unit                     : eV/A/e
 output        entropy unit                     : J/mol/K
  
 wavefunctions paging                           : none
 random number generator seed                   : randomised (122231526)
 data distribution                              : optimal for this architecture
 optimization strategy                          : maximize speed(+++)

 *********************** Exchange-Correlation Parameters ***********************
  
 using functional                               : Perdew Burke Ernzerhof
 relativistic treatment                         : Koelling-Harmon
 DFT+D: Semi-empirical dispersion correction    : off

 ************************* Pseudopotential Parameters **************************
  
 pseudopotential representation                 : reciprocal space
 <beta|phi> representation                      : reciprocal space
 spin-orbit coupling                            : off

 **************************** Basis Set Parameters *****************************
  
 plane wave basis set cut-off                   :   400.0000   eV
 size of standard grid                          :     1.7500
 size of   fine   gmax                          :    17.9311   1/A
 finite basis set correction                    : none

 **************************** Electronic Parameters ****************************
  
 number of  electrons                           :  9.000    
 net charge of system                           :  0.000    
 treating system as non-spin-polarized
 number of bands                                :          7

 ********************* Electronic Minimization Parameters **********************
  
 Method: Treating system as metallic with density mixing treatment of electrons,
         and number of  SD  steps               :          1
         and number of  CG  steps               :          4
  
 total energy / atom convergence tol.           : 0.1000E-04   eV
 eigen-energy convergence tolerance             : 0.1000E-05   eV
 max force / atom convergence tol.              : ignored
 convergence tolerance window                   :          3   cycles
 max. number of SCF cycles                      :        100
 number of fixed-spin iterations                :         10
 smearing scheme                                : Gaussian
 smearing width                                 : 0.2000       eV
 Fermi energy convergence tolerance             : 0.2721E-13   eV
 periodic dipole correction                     : NONE

 ************************** Density Mixing Parameters **************************
  
 density-mixing scheme                          : Broyden
 max. length of mixing history                  :         20
 charge density mixing amplitude                : 0.8000    
 cut-off energy for mixing                      :  400.0       eV

 *********************** Population Analysis Parameters ************************
  
 Population analysis with cutoff                :  3.000       A

 ********************** Geometry Optimization Parameters ***********************
  
 optimization method                            : LBFGS
 max. no. of LBFGS updates                      : unbounded
 variable cell method                           : fixed basis quality
 max. number of steps                           :          2
 estimated bulk modulus                         :  500.0       GPa
 estimated <frequency>                          :  1668.       cm-1
 geom line minimiser                            : on
 with line minimiser tolerance                  :     0.4000
 total energy convergence tolerance             : 0.2000E-04   eV/atom
        max ionic |force| tolerance             : 0.5000E-01   eV/A
 max ionic |displacement| tolerance             : 0.1000E-02   A
   max |stress component| tolerance             : 0.1000       GPa
 convergence tolerance window                   :          2   steps
 backup results every                           : 2147483647   steps

 *******************************************************************************
  
 
                           -------------------------------
                                      Unit Cell
                           -------------------------------
        Real Lattice(A)                      Reciprocal Lattice(1/A)
   3.6427060  -0.0000000   0.0000000        1.7248675   0.6098328   1.0562614
  -1.2142354   3.4343761   0.0000000        0.0000000   1.8294983   1.0562614
  -1.2142354  -1.7171881   2.9742570        0.0000000   0.0000000   2.1125227
 
                       Lattice parameters(A)       Cell Angles
                    a =    3.642706          alpha =  109.471221
                    b =    3.642706          beta  =  109.471221
                    c =    3.642706          gamma =  109.471221
 
                       Current cell volume =   37.209211       A**3
 
                           -------------------------------
                                     Cell Contents
                           -------------------------------
                         Total number of ions in cell =    1
                      Total number of species in cell =    1
                        Max number of any one species =    1
 
            xxxxxxxxxxxxxxxxxxxxxxxxxxxxxxxxxxxxxxxxxxxxxxxxxxxxxxxxxxxx
            x  Element    Atom        Fractional coordinates of atoms  x
            x            Number           u          v          w      x
            x----------------------------------------------------------x
            x  Na           1         0.000000   0.000000   0.000000   x 
            xxxxxxxxxxxxxxxxxxxxxxxxxxxxxxxxxxxxxxxxxxxxxxxxxxxxxxxxxxxx
 
 
                         No user defined ionic velocities
 
                           -------------------------------
                                   Details of Species
                           -------------------------------
 
                               Mass of species in AMU
                                    Na   22.9897700
 
                          Electric Quadrupole Moment (Barn)
                                    Na    0.1040000 Isotope 23
 
                          Files used for pseudopotentials:
                                    Na Na_00PBE.usp
 
                           -------------------------------
                              k-Points For BZ Sampling
                           -------------------------------
                       MP grid size for SCF calculation is  7  7  7
                            with an offset of   0.000  0.000  0.000
                       Number of kpoints used =            20
 
                           -------------------------------
                               Symmetry and Constraints
                           -------------------------------
 
                      Maximum deviation from symmetry = 0.423003E-14     ANG
 
                      Number of symmetry operations   =          48
                      Number of ionic constraints     =           3
                      Point group of crystal =    32: Oh, m-3m, 4/m -3 2/m
                      Space group of crystal =   229: Im-3m, -I 4 2 3
 
             Set iprint > 1 for details on symmetry rotations/translations
 
                         Centre of mass is constrained
             Set iprint > 1 for details of linear ionic constraints
 
                         Number of cell constraints= 4
                         Cell constraints are:  1 1 1 4 4 4
 
                         External pressure/stress (GPa)
                          0.00000   0.00000   0.00000
                                    0.00000   0.00000
                                              0.00000
  
+---------------- MEMORY AND SCRATCH DISK ESTIMATES PER PROCESS --------------+
|                                                     Memory          Disk    |
| Baseline code, static data and system overhead      113.0 MB         0.0 MB |
| BLAS internal memory storage                          0.0 MB         0.0 MB |
| Model and support data                                4.5 MB         0.0 MB |
| Electronic energy minimisation requirements           0.9 MB         0.0 MB |
| Force calculation requirements                        0.6 MB         0.0 MB |
| Stress calculation requirements                       0.7 MB         0.0 MB |
|                                               ----------------------------- |
| Approx. total storage required per process          118.4 MB         0.0 MB |
|                                                                             |
| Requirements will fluctuate during execution and may exceed these estimates |
+-----------------------------------------------------------------------------+
------------------------------------------------------------------------ <-- SCF
SCF loop      Energy           Fermi           Energy gain       Timer   <-- SCF
                               energy          per atom          (sec)   <-- SCF
------------------------------------------------------------------------ <-- SCF
Initial  -1.30896656E+003  0.00000000E+000                         0.34  <-- SCF
      1  -1.29085987E+003  3.21704032E+000  -1.81066842E+001       0.39  <-- SCF
      2  -1.30403951E+003  1.09225474E+000   1.31796392E+001       0.42  <-- SCF
      3  -1.30423265E+003  9.38743931E-001   1.93139519E-001       0.45  <-- SCF
      4  -1.30423359E+003  9.08888039E-001   9.36152733E-004       0.50  <-- SCF
      5  -1.30423365E+003  8.87252660E-001   6.66142413E-005       0.56  <-- SCF
      6  -1.30423365E+003  8.87217632E-001  -1.38600127E-006       0.59  <-- SCF
      7  -1.30423365E+003  8.87305858E-001  -1.97068739E-007       0.63  <-- SCF
------------------------------------------------------------------------ <-- SCF
 
Final energy, E             =  -1304.222889926     eV
Final free energy (E-TS)    =  -1304.233652412     eV
(energies not corrected for finite basis set)
 
NB est. 0K energy (E-0.5TS)      =  -1304.228271169     eV
 

WARNING - doing cell minimisation without finite basis correction:
        => now searching for a stationary and not minimum energy
 
+---------------- MEMORY AND SCRATCH DISK ESTIMATES PER PROCESS --------------+
|                                                     Memory          Disk    |
| Model and support data                               15.4 MB         0.0 MB |
| Electronic energy minimisation requirements           0.9 MB         0.0 MB |
| Geometry minimisation requirements                    1.1 MB         0.0 MB |
|                                               ----------------------------- |
| Approx. total storage required per process           17.3 MB         0.0 MB |
|                                                                             |
| Requirements will fluctuate during execution and may exceed these estimates |
+-----------------------------------------------------------------------------+
 
 
 ***************** Stress Tensor *****************
 *                                               *
 *          Cartesian components (GPa)           *
 * --------------------------------------------- *
 *             x             y             z     *
 *                                               *
 *  x      0.209281     -0.000000     -0.000000  *
 *  y     -0.000000      0.209281     -0.000000  *
 *  z     -0.000000     -0.000000      0.209281  *
 *                                               *
 *  Pressure:   -0.2093                          *
 *                                               *
 *************************************************
 
 *********** Constrained Stress Tensor ***********
 *                                               *
 *          Cartesian components (GPa)           *
 * --------------------------------------------- *
 *             x             y             z     *
 *                                               *
 *  x      0.209340     -0.000000     -0.000000  *
 *  y     -0.000000      0.209340     -0.000000  *
 *  z     -0.000000     -0.000000      0.209340  *
 *                                               *
 *  Pressure:   -0.2093                          *
 *                                               *
 *************************************************
 LBFGS: finished iteration     0 with enthalpy= -1.30423365E+003 eV
  
 +-----------+-----------------+-----------------+------------+-----+ <-- LBFGS
 | Parameter |      value      |    tolerance    |    units   | OK? | <-- LBFGS
 +-----------+-----------------+-----------------+------------+-----+ <-- LBFGS
 |  dE/ion   |   0.000000E+000 |   2.000000E-005 |         eV | No  | <-- LBFGS
 |   Smax    |   2.092813E-001 |   1.000000E-001 |        GPa | No  | <-- LBFGS
 +-----------+-----------------+-----------------+------------+-----+ <-- LBFGS
  

================================================================================
 Starting LBFGS iteration          1 ...
================================================================================
  
 +------------+-------------+-------------+-----------------+ <-- min LBFGS
 |    Step    |   lambda    |   F.delta'  |    enthalpy     | <-- min LBFGS
 +------------+-------------+-------------+-----------------+ <-- min LBFGS
 |  previous  |    0.000000 |    0.003094 |    -1304.233652 | <-- min LBFGS
 +------------+-------------+-------------+-----------------+ <-- min LBFGS
  

--------------------------------------------------------------------------------
 LBFGS: starting iteration         1 with trial guess (lambda=  1.000000)
--------------------------------------------------------------------------------
 
                           -------------------------------
                                      Unit Cell
                           -------------------------------
        Real Lattice(A)              Reciprocal Lattice(1/A)
   3.6421978   0.0000000   0.0000000        1.7251082   0.6099179   1.0564088
  -1.2140659   3.4338970   0.0000000       -0.0000000   1.8297536   1.0564088
  -1.2140659  -1.7169485   2.9738420       -0.0000000  -0.0000000   2.1128175
 
                       Lattice parameters(A)       Cell Angles
                    a =    3.642198          alpha =  109.471221
                    b =    3.642198          beta  =  109.471221
                    c =    3.642198          gamma =  109.471221
 
                Current cell volume =   37.193639 A**3
 
------------------------------------------------------------------------ <-- SCF
SCF loop      Energy           Fermi           Energy gain       Timer   <-- SCF
                               energy          per atom          (sec)   <-- SCF
------------------------------------------------------------------------ <-- SCF
Initial  -1.30422278E+003  0.00000000E+000                         0.70  <-- SCF
      1  -1.30423371E+003  8.89342553E-001   1.09319876E-002       0.73  <-- SCF
      2  -1.30423371E+003  8.89342541E-001   3.05497429E-007       0.77  <-- SCF
      3  -1.30423368E+003  8.88817330E-001  -3.21240134E-005       0.81  <-- SCF
      4  -1.30423367E+003  8.88825784E-001  -4.87845076E-006       0.84  <-- SCF
      5  -1.30423367E+003  8.88811237E-001   8.14101871E-007       0.88  <-- SCF
------------------------------------------------------------------------ <-- SCF
 
Final energy, E             =  -1304.222911722     eV
Final free energy (E-TS)    =  -1304.233671621     eV
(energies not corrected for finite basis set)
 
NB est. 0K energy (E-0.5TS)      =  -1304.228291671     eV
 
 
 ***************** Stress Tensor *****************
 *                                               *
 *          Cartesian components (GPa)           *
 * --------------------------------------------- *
 *             x             y             z     *
 *                                               *
 *  x      0.185360     -0.000000     -0.000000  *
 *  y     -0.000000      0.185360     -0.000000  *
 *  z     -0.000000     -0.000000      0.185360  *
 *                                               *
 *  Pressure:   -0.1854                          *
 *                                               *
 *************************************************
 
 *********** Constrained Stress Tensor ***********
 *                                               *
 *          Cartesian components (GPa)           *
 * --------------------------------------------- *
 *             x             y             z     *
 *                                               *
 *  x      0.185406     -0.000000     -0.000000  *
 *  y     -0.000000      0.185406     -0.000000  *
 *  z     -0.000000     -0.000000      0.185406  *
 *                                               *
 *  Pressure:   -0.1854                          *
 *                                               *
 *************************************************
  
 +------------+-------------+-------------+-----------------+ <-- min LBFGS
 |    Step    |   lambda    |   F.delta'  |    enthalpy     | <-- min LBFGS
 +------------+-------------+-------------+-----------------+ <-- min LBFGS
 |  previous  |    0.000000 |    0.003094 |    -1304.233652 | <-- min LBFGS
 | trial step |    1.000000 |    0.002739 |    -1304.233672 | <-- min LBFGS
 +------------+-------------+-------------+-----------------+ <-- min LBFGS
  
 LBFGS: finished iteration     1 with enthalpy= -1.30423367E+003 eV
  
 +-----------+-----------------+-----------------+------------+-----+ <-- LBFGS
 | Parameter |      value      |    tolerance    |    units   | OK? | <-- LBFGS
 +-----------+-----------------+-----------------+------------+-----+ <-- LBFGS
 |  dE/ion   |   1.920960E-005 |   2.000000E-005 |         eV | Yes | <-- LBFGS
 |   Smax    |   1.853598E-001 |   1.000000E-001 |        GPa | No  | <-- LBFGS
 +-----------+-----------------+-----------------+------------+-----+ <-- LBFGS
  

================================================================================
 Starting LBFGS iteration          2 ...
================================================================================
  
 +------------+-------------+-------------+-----------------+ <-- min LBFGS
 |    Step    |   lambda    |   F.delta'  |    enthalpy     | <-- min LBFGS
 +------------+-------------+-------------+-----------------+ <-- min LBFGS
 |  previous  |    0.000000 |    0.002739 |    -1304.233672 | <-- min LBFGS
 +------------+-------------+-------------+-----------------+ <-- min LBFGS
  

--------------------------------------------------------------------------------
 LBFGS: starting iteration         2 with trial guess (lambda=  1.000000)
--------------------------------------------------------------------------------
 
                           -------------------------------
                                      Unit Cell
                           -------------------------------
        Real Lattice(A)              Reciprocal Lattice(1/A)
   3.6417478   0.0000000   0.0000000        1.7253214   0.6099932   1.0565393
  -1.2139159   3.4334727   0.0000000       -0.0000000   1.8299797   1.0565393
  -1.2139159  -1.7167364   2.9734746       -0.0000000  -0.0000000   2.1130786
 
                       Lattice parameters(A)       Cell Angles
                    a =    3.641748          alpha =  109.471221
                    b =    3.641748          beta  =  109.471221
                    c =    3.641748          gamma =  109.471221
 
                Current cell volume =   37.179854 A**3
 
------------------------------------------------------------------------ <-- SCF
SCF loop      Energy           Fermi           Energy gain       Timer   <-- SCF
                               energy          per atom          (sec)   <-- SCF
------------------------------------------------------------------------ <-- SCF
Initial  -1.30422280E+003  0.00000000E+000                         0.95  <-- SCF
      1  -1.30423372E+003  8.90554147E-001   1.09148380E-002       0.98  <-- SCF
      2  -1.30423372E+003  8.90554139E-001   2.41265117E-007       1.01  <-- SCF
      3  -1.30423369E+003  8.90078421E-001  -2.61487369E-005       1.06  <-- SCF
      4  -1.30423369E+003  8.90086707E-001  -3.98233721E-006       1.09  <-- SCF
      5  -1.30423369E+003  8.90073794E-001   6.67934450E-007       1.13  <-- SCF
------------------------------------------------------------------------ <-- SCF
 
Final energy, E             =  -1304.222930541     eV
Final free energy (E-TS)    =  -1304.233688112     eV
(energies not corrected for finite basis set)
 
NB est. 0K energy (E-0.5TS)      =  -1304.228309326     eV
 
 
 ***************** Stress Tensor *****************
 *                                               *
 *          Cartesian components (GPa)           *
 * --------------------------------------------- *
 *             x             y             z     *
 *                                               *
 *  x      0.181540     -0.000000     -0.000000  *
 *  y     -0.000000      0.181540     -0.000000  *
 *  z     -0.000000     -0.000000      0.181540  *
 *                                               *
 *  Pressure:   -0.1815                          *
 *                                               *
 *************************************************
 
 *********** Constrained Stress Tensor ***********
 *                                               *
 *          Cartesian components (GPa)           *
 * --------------------------------------------- *
 *             x             y             z     *
 *                                               *
 *  x      0.181584     -0.000000     -0.000000  *
 *  y     -0.000000      0.181584     -0.000000  *
 *  z     -0.000000     -0.000000      0.181584  *
 *                                               *
 *  Pressure:   -0.1816                          *
 *                                               *
 *************************************************
  
 +------------+-------------+-------------+-----------------+ <-- min LBFGS
 |    Step    |   lambda    |   F.delta'  |    enthalpy     | <-- min LBFGS
 +------------+-------------+-------------+-----------------+ <-- min LBFGS
 |  previous  |    0.000000 |    0.002739 |    -1304.233672 | <-- min LBFGS
 | trial step |    1.000000 |    0.002682 |    -1304.233688 | <-- min LBFGS
 +------------+-------------+-------------+-----------------+ <-- min LBFGS
  
 LBFGS: finished iteration     2 with enthalpy= -1.30423369E+003 eV
  
 +-----------+-----------------+-----------------+------------+-----+ <-- LBFGS
 | Parameter |      value      |    tolerance    |    units   | OK? | <-- LBFGS
 +-----------+-----------------+-----------------+------------+-----+ <-- LBFGS
 |  dE/ion   |   1.649045E-005 |   2.000000E-005 |         eV | Yes | <-- LBFGS
 |   Smax    |   1.815403E-001 |   1.000000E-001 |        GPa | No  | <-- LBFGS
 +-----------+-----------------+-----------------+------------+-----+ <-- LBFGS
  
 LBFGS: WARNING - Geometry optimization failed to converge after          2 steps

================================================================================
 LBFGS: Final Configuration:
================================================================================
 
                           -------------------------------
                                      Unit Cell
                           -------------------------------
        Real Lattice(A)              Reciprocal Lattice(1/A)
   3.6417478   0.0000000   0.0000000        1.7253214   0.6099932   1.0565393
  -1.2139159   3.4334727   0.0000000       -0.0000000   1.8299797   1.0565393
  -1.2139159  -1.7167364   2.9734746       -0.0000000  -0.0000000   2.1130786
 
                       Lattice parameters(A)       Cell Angles
                    a =    3.641748          alpha =  109.471221
                    b =    3.641748          beta  =  109.471221
                    c =    3.641748          gamma =  109.471221
 
                Current cell volume =   37.179854 A**3
 
 LBFGS: Final Enthalpy     = -1.30423369E+003 eV
 LBFGS: Final bulk modulus unchanged from initial value
  
  **********************************************************
  *** There were at least     2 warnings during this run ***
  *** => please check the whole of this file carefully!  ***
  **********************************************************
 
 ***************************** Symmetrised Forces *****************************
 *                                                                            *
 *                        Cartesian components (eV/A)                         *
 * -------------------------------------------------------------------------- *
 *                   x                    y                    z              *
 *                                                                            *
 * Na        1      0.00000              0.00000              0.00000         *
 *                                                                            *
 ******************************************************************************
 
 *********** Symmetrised Stress Tensor ***********
 *                                               *
 *          Cartesian components (GPa)           *
 * --------------------------------------------- *
 *             x             y             z     *
 *                                               *
 *  x      0.181540     -0.000000     -0.000000  *
 *  y     -0.000000      0.181540     -0.000000  *
 *  z     -0.000000     -0.000000      0.181540  *
 *                                               *
 *  Pressure:   -0.1815                          *
 *                                               *
 *************************************************
 
 Pseudo atomic calculation performed for Na 2s2 2p6 3s1
 
 Converged in 13 iterations to a total energy of -1302.5052 eV
 
Charge spilling parameter for spin component 1 = 0.01%
 
     Atomic Populations (Mulliken)
     -----------------------------
Species   Ion     s      p      d      f     Total  Charge (e)
==============================================================
  Na       1     2.36   6.64   0.00   0.00   9.00     0.00
==============================================================
 
            Bond              Population      Length (A)
============================================================
============================================================
 
Initialisation time =      0.20 s
Calculation time    =      1.12 s
Finalisation time   =      0.01 s
Total time          =      1.33 s
Peak Memory Use     = 131344 kB
  
Overall parallel efficiency rating: Mediocre (59%)                              
  
Data was distributed by:-
G-vector (3-way); efficiency rating: Satisfactory (65%)                         
k-point (5-way); efficiency rating: Very good (83%)                             
  
Parallel notes:
1) Calculation only took 1.3 s, so efficiency estimates may be inaccurate.      
 +-------------------------------------------------+
 |                                                 |
 |      CCC   AA    SSS  TTTTT  EEEEE  PPPP        |
 |     C     A  A  S       T    E      P   P       |
 |     C     AAAA   SS     T    EEE    PPPP        |
 |     C     A  A     S    T    E      P           |
 |      CCC  A  A  SSS     T    EEEEE  P           |
 |                                                 |
 +-------------------------------------------------+
 |                                                 |
 | Welcome to Academic Release CASTEP version 16.1 |          
 | Ab Initio Total Energy Program                  |
 |                                                 |
 | Authors:                                        |
 | M. Segall, M. Probert, C. Pickard, P. Hasnip,   |
 | S. Clark, K. Refson, J. R. Yates, M. Payne      |
 |                                                 |
 | Contributors:                                   |
 | P. Lindan, P. Haynes, J. White, V. Milman,      |
 | N. Govind, M. Gibson, P. Tulip, V. Cocula,      |
 | B. Montanari, D. Quigley, M. Glover,            |
 | L. Bernasconi, A. Perlov, M. Plummer,           |
 | E. McNellis, J. Meyer, J. Gale, D. Jochym       |
 | J. Aarons, B. Walker, R. Gillen, D. Jones       |
 | T. Green, I. J. Bush, C. J. Armstrong,          |
 | E. J. Higgins, E. L. Brown, M. S. McFly         |
 |                                                 |
 | Copyright (c) 2000 - 2015                       |
 |                                                 |
 |     Distributed under the terms of an           |
 |     Agreement between the United Kingdom        |
 |     Car-Parrinello (UKCP) Consortium,           |
 |     Daresbury Laboratory and Accelrys, Inc.     |
 |                                                 |
 | Please cite                                     |
 |                                                 |
 |     "First principles methods using CASTEP"     |
 |                                                 |
 |         Zeitschrift fuer Kristallographie       |
 |           220(5-6) pp. 567-570 (2005)           |
 |                                                 |
 | S. J. Clark, M. D. Segall, C. J. Pickard,       |
 | P. J. Hasnip, M. J. Probert, K. Refson,         |
 | M. C. Payne                                     |
 |                                                 |
 |       in all publications arising from          |
 |              your use of CASTEP                 |
 |                                                 |
 +-------------------------------------------------+
 
 
 Compiled for linux_x86_64_ifort14 on Mon, 07 Dec 2015 10:43:21 +0000
 from code version 2756eb6097bf+  Tue, 01 Dec 2015 09:30:30 +0000
 Compiler: Intel Fortran 14.0.0.080; Optimisation: fast
 MATHLIBS: Intel MKL(11.1.0) (LAPACK version 3.4.1)
 FFT Lib : mkl
 Fundamental constants values: CODATA 2010
 
 Run started: Mon, 28 Aug 2017 12:22:34 +0100
 Info: number of up-spin electrons is not equal to the
       number of down-spins but spin_polarized=false
     - consider setting spin_polarized=true.
 Warning in parameters_read: it appears you may not have specified enough 
                           - extra bands so you may have trouble with metals
                           - convergence as a consequence. Suggest you 
                           - consider setting nextra_bands=4 at least.
 
 Pseudo atomic calculation performed for Na 2s2 2p6 3s1
 
 Converged in 13 iterations to a total energy of -1302.5052 eV
 
 Calculation parallelised over 15 processes.
 Data is distributed by G-vector(3-way) and k-point(5-way)

 ************************************ Title ************************************
 

 ***************************** General Parameters ******************************
  
 output verbosity                               : normal  (1)
 write checkpoint data to                       : Na-1CollCode53753.check
 type of calculation                            : geometry optimization
 stress calculation                             : on
 density difference calculation                 : off
 electron localisation func (ELF) calculation   : off
 Hirshfeld analysis                             : off
 unlimited duration calculation
 timing information                             : on
 memory usage estimate                          : on
 write final potential to formatted file        : off
 write final density to formatted file          : off
 write structure in CELL formatted file         : on
 write BibTeX reference list                    : off
 write OTFG pseudopotential files               : on
 checkpoint writing                             : off
  
 output         length unit                     : A
 output           mass unit                     : amu
 output           time unit                     : ps
 output         charge unit                     : e
 output           spin unit                     : hbar/2
 output         energy unit                     : eV
 output          force unit                     : eV/A
 output       velocity unit                     : A/ps
 output       pressure unit                     : GPa
 output     inv_length unit                     : 1/A
 output      frequency unit                     : cm-1
 output force constant unit                     : eV/A**2
 output         volume unit                     : A**3
 output   IR intensity unit                     : (D/A)**2/amu
 output         dipole unit                     : D
 output         efield unit                     : eV/A/e
 output        entropy unit                     : J/mol/K
  
 wavefunctions paging                           : none
 random number generator seed                   : randomised (122234778)
 data distribution                              : optimal for this architecture
 optimization strategy                          : maximize speed(+++)

 *********************** Exchange-Correlation Parameters ***********************
  
 using functional                               : Perdew Burke Ernzerhof
 relativistic treatment                         : Koelling-Harmon
 DFT+D: Semi-empirical dispersion correction    : off

 ************************* Pseudopotential Parameters **************************
  
 pseudopotential representation                 : reciprocal space
 <beta|phi> representation                      : reciprocal space
 spin-orbit coupling                            : off

 **************************** Basis Set Parameters *****************************
  
 plane wave basis set cut-off                   :   400.0000   eV
 size of standard grid                          :     1.7500
 size of   fine   gmax                          :    17.9311   1/A
 finite basis set correction                    : none

 **************************** Electronic Parameters ****************************
  
 number of  electrons                           :  9.000    
 net charge of system                           :  0.000    
 treating system as non-spin-polarized
 number of bands                                :          7

 ********************* Electronic Minimization Parameters **********************
  
 Method: Treating system as metallic with density mixing treatment of electrons,
         and number of  SD  steps               :          1
         and number of  CG  steps               :          4
  
 total energy / atom convergence tol.           : 0.1000E-04   eV
 eigen-energy convergence tolerance             : 0.1000E-05   eV
 max force / atom convergence tol.              : ignored
 convergence tolerance window                   :          3   cycles
 max. number of SCF cycles                      :        100
 number of fixed-spin iterations                :         10
 smearing scheme                                : Gaussian
 smearing width                                 : 0.2000       eV
 Fermi energy convergence tolerance             : 0.2721E-13   eV
 periodic dipole correction                     : NONE

 ************************** Density Mixing Parameters **************************
  
 density-mixing scheme                          : Broyden
 max. length of mixing history                  :         20
 charge density mixing amplitude                : 0.8000    
 cut-off energy for mixing                      :  400.0       eV

 *********************** Population Analysis Parameters ************************
  
 Population analysis with cutoff                :  3.000       A

 ********************** Geometry Optimization Parameters ***********************
  
 optimization method                            : LBFGS
 max. no. of LBFGS updates                      : unbounded
 variable cell method                           : fixed basis quality
 max. number of steps                           :          2
 estimated bulk modulus                         :  500.0       GPa
 estimated <frequency>                          :  1668.       cm-1
 geom line minimiser                            : on
 with line minimiser tolerance                  :     0.4000
 total energy convergence tolerance             : 0.2000E-04   eV/atom
        max ionic |force| tolerance             : 0.5000E-01   eV/A
 max ionic |displacement| tolerance             : 0.1000E-02   A
   max |stress component| tolerance             : 0.1000       GPa
 convergence tolerance window                   :          2   steps
 backup results every                           : 2147483647   steps

 *******************************************************************************
  
 
                           -------------------------------
                                      Unit Cell
                           -------------------------------
        Real Lattice(A)                      Reciprocal Lattice(1/A)
   3.6417478   0.0000000   0.0000000        1.7253214   0.6099932   1.0565393
  -1.2139159   3.4334727   0.0000000       -0.0000000   1.8299797   1.0565393
  -1.2139159  -1.7167364   2.9734746       -0.0000000  -0.0000000   2.1130786
 
                       Lattice parameters(A)       Cell Angles
                    a =    3.641748          alpha =  109.471221
                    b =    3.641748          beta  =  109.471221
                    c =    3.641748          gamma =  109.471221
 
                       Current cell volume =   37.179854       A**3
 
                           -------------------------------
                                     Cell Contents
                           -------------------------------
                         Total number of ions in cell =    1
                      Total number of species in cell =    1
                        Max number of any one species =    1
 
            xxxxxxxxxxxxxxxxxxxxxxxxxxxxxxxxxxxxxxxxxxxxxxxxxxxxxxxxxxxx
            x  Element    Atom        Fractional coordinates of atoms  x
            x            Number           u          v          w      x
            x----------------------------------------------------------x
            x  Na           1         0.000000   0.000000   0.000000   x 
            xxxxxxxxxxxxxxxxxxxxxxxxxxxxxxxxxxxxxxxxxxxxxxxxxxxxxxxxxxxx
 
 
                         No user defined ionic velocities
 
                           -------------------------------
                                   Details of Species
                           -------------------------------
 
                               Mass of species in AMU
                                    Na   22.9897700
 
                          Electric Quadrupole Moment (Barn)
                                    Na    0.1040000 Isotope 23
 
                          Files used for pseudopotentials:
                                    Na Na_00PBE.usp
 
                           -------------------------------
                              k-Points For BZ Sampling
                           -------------------------------
                       MP grid size for SCF calculation is  7  7  7
                            with an offset of   0.000  0.000  0.000
                       Number of kpoints used =            20
 
                           -------------------------------
                               Symmetry and Constraints
                           -------------------------------
 
                      Maximum deviation from symmetry = 0.211502E-14     ANG
 
                      Number of symmetry operations   =          48
                      Number of ionic constraints     =           3
                      Point group of crystal =    32: Oh, m-3m, 4/m -3 2/m
                      Space group of crystal =   229: Im-3m, -I 4 2 3
 
             Set iprint > 1 for details on symmetry rotations/translations
 
                         Centre of mass is constrained
             Set iprint > 1 for details of linear ionic constraints
 
                         Number of cell constraints= 4
                         Cell constraints are:  1 1 1 4 4 4
 
                         External pressure/stress (GPa)
                          0.00000   0.00000   0.00000
                                    0.00000   0.00000
                                              0.00000
  
+---------------- MEMORY AND SCRATCH DISK ESTIMATES PER PROCESS --------------+
|                                                     Memory          Disk    |
| Baseline code, static data and system overhead      113.0 MB         0.0 MB |
| BLAS internal memory storage                          0.0 MB         0.0 MB |
| Model and support data                                4.5 MB         0.0 MB |
| Electronic energy minimisation requirements           0.9 MB         0.0 MB |
| Force calculation requirements                        0.6 MB         0.0 MB |
| Stress calculation requirements                       0.7 MB         0.0 MB |
|                                               ----------------------------- |
| Approx. total storage required per process          118.4 MB         0.0 MB |
|                                                                             |
| Requirements will fluctuate during execution and may exceed these estimates |
+-----------------------------------------------------------------------------+
------------------------------------------------------------------------ <-- SCF
SCF loop      Energy           Fermi           Energy gain       Timer   <-- SCF
                               energy          per atom          (sec)   <-- SCF
------------------------------------------------------------------------ <-- SCF
Initial  -1.30722733E+003  0.00000000E+000                         0.34  <-- SCF
      1  -1.29377433E+003  2.41526255E+000  -1.34529972E+001       0.40  <-- SCF
      2  -1.30413778E+003  1.04059951E+000   1.03634461E+001       0.43  <-- SCF
      3  -1.30423236E+003  9.41846237E-001   9.45822589E-002       0.47  <-- SCF
      4  -1.30423361E+003  9.11564259E-001   1.24622454E-003       0.52  <-- SCF
      5  -1.30423370E+003  8.90147521E-001   9.04473167E-005       0.57  <-- SCF
      6  -1.30423369E+003  8.89802953E-001  -9.23558112E-006       0.62  <-- SCF
      7  -1.30423369E+003  8.89990487E-001  -9.76448310E-007       0.66  <-- SCF
      8  -1.30423369E+003  8.90033578E-001   2.61688908E-007       0.69  <-- SCF
------------------------------------------------------------------------ <-- SCF
 
Final energy, E             =  -1304.222928920     eV
Final free energy (E-TS)    =  -1304.233686854     eV
(energies not corrected for finite basis set)
 
NB est. 0K energy (E-0.5TS)      =  -1304.228307887     eV
 

WARNING - doing cell minimisation without finite basis correction:
        => now searching for a stationary and not minimum energy
 
+---------------- MEMORY AND SCRATCH DISK ESTIMATES PER PROCESS --------------+
|                                                     Memory          Disk    |
| Model and support data                               15.4 MB         0.0 MB |
| Electronic energy minimisation requirements           0.9 MB         0.0 MB |
| Geometry minimisation requirements                    1.1 MB         0.0 MB |
|                                               ----------------------------- |
| Approx. total storage required per process           17.3 MB         0.0 MB |
|                                                                             |
| Requirements will fluctuate during execution and may exceed these estimates |
+-----------------------------------------------------------------------------+
 
 
 ***************** Stress Tensor *****************
 *                                               *
 *          Cartesian components (GPa)           *
 * --------------------------------------------- *
 *             x             y             z     *
 *                                               *
 *  x      0.177927     -0.000000     -0.000000  *
 *  y     -0.000000      0.177927     -0.000000  *
 *  z     -0.000000     -0.000000      0.177927  *
 *                                               *
 *  Pressure:   -0.1779                          *
 *                                               *
 *************************************************
 
 *********** Constrained Stress Tensor ***********
 *                                               *
 *          Cartesian components (GPa)           *
 * --------------------------------------------- *
 *             x             y             z     *
 *                                               *
 *  x      0.177969     -0.000000     -0.000000  *
 *  y     -0.000000      0.177969     -0.000000  *
 *  z     -0.000000     -0.000000      0.177969  *
 *                                               *
 *  Pressure:   -0.1780                          *
 *                                               *
 *************************************************
 LBFGS: finished iteration     0 with enthalpy= -1.30423369E+003 eV
  
 +-----------+-----------------+-----------------+------------+-----+ <-- LBFGS
 | Parameter |      value      |    tolerance    |    units   | OK? | <-- LBFGS
 +-----------+-----------------+-----------------+------------+-----+ <-- LBFGS
 |  dE/ion   |   0.000000E+000 |   2.000000E-005 |         eV | No  | <-- LBFGS
 |   Smax    |   1.779268E-001 |   1.000000E-001 |        GPa | No  | <-- LBFGS
 +-----------+-----------------+-----------------+------------+-----+ <-- LBFGS
  

================================================================================
 Starting LBFGS iteration          1 ...
================================================================================
  
 +------------+-------------+-------------+-----------------+ <-- min LBFGS
 |    Step    |   lambda    |   F.delta'  |    enthalpy     | <-- min LBFGS
 +------------+-------------+-------------+-----------------+ <-- min LBFGS
 |  previous  |    0.000000 |    0.002628 |    -1304.233687 | <-- min LBFGS
 +------------+-------------+-------------+-----------------+ <-- min LBFGS
  

--------------------------------------------------------------------------------
 LBFGS: starting iteration         1 with trial guess (lambda=  1.000000)
--------------------------------------------------------------------------------
 
                           -------------------------------
                                      Unit Cell
                           -------------------------------
        Real Lattice(A)              Reciprocal Lattice(1/A)
   3.6413158   0.0000000   0.0000000        1.7255261   0.6100656   1.0566646
  -1.2137719   3.4330654   0.0000000       -0.0000000   1.8301968   1.0566646
  -1.2137719  -1.7165328   2.9731218       -0.0000000  -0.0000000   2.1133292
 
                       Lattice parameters(A)       Cell Angles
                    a =    3.641316          alpha =  109.471221
                    b =    3.641316          beta  =  109.471221
                    c =    3.641316          gamma =  109.471221
 
                Current cell volume =   37.166625 A**3
 
------------------------------------------------------------------------ <-- SCF
SCF loop      Energy           Fermi           Energy gain       Timer   <-- SCF
                               energy          per atom          (sec)   <-- SCF
------------------------------------------------------------------------ <-- SCF
Initial  -1.30422282E+003  0.00000000E+000                         0.77  <-- SCF
      1  -1.30423372E+003  8.91758574E-001   1.09060890E-002       0.80  <-- SCF
      2  -1.30423372E+003  8.91758565E-001   2.48675973E-007       0.84  <-- SCF
      3  -1.30423370E+003  8.91303515E-001  -2.39908201E-005       0.88  <-- SCF
      4  -1.30423370E+003  8.91311344E-001  -3.64447730E-006       0.91  <-- SCF
      5  -1.30423370E+003  8.91298186E-001   6.08465473E-007       0.96  <-- SCF
------------------------------------------------------------------------ <-- SCF
 
Final energy, E             =  -1304.222941837     eV
Final free energy (E-TS)    =  -1304.233697544     eV
(energies not corrected for finite basis set)
 
NB est. 0K energy (E-0.5TS)      =  -1304.228319690     eV
 
 
 ***************** Stress Tensor *****************
 *                                               *
 *          Cartesian components (GPa)           *
 * --------------------------------------------- *
 *             x             y             z     *
 *                                               *
 *  x      0.177923     -0.000000     -0.000000  *
 *  y     -0.000000      0.177923     -0.000000  *
 *  z     -0.000000     -0.000000      0.177923  *
 *                                               *
 *  Pressure:   -0.1779                          *
 *                                               *
 *************************************************
 
 *********** Constrained Stress Tensor ***********
 *                                               *
 *          Cartesian components (GPa)           *
 * --------------------------------------------- *
 *             x             y             z     *
 *                                               *
 *  x      0.177965     -0.000000     -0.000000  *
 *  y     -0.000000      0.177965     -0.000000  *
 *  z     -0.000000     -0.000000      0.177965  *
 *                                               *
 *  Pressure:   -0.1780                          *
 *                                               *
 *************************************************
  
 +------------+-------------+-------------+-----------------+ <-- min LBFGS
 |    Step    |   lambda    |   F.delta'  |    enthalpy     | <-- min LBFGS
 +------------+-------------+-------------+-----------------+ <-- min LBFGS
 |  previous  |    0.000000 |    0.002628 |    -1304.233687 | <-- min LBFGS
 | trial step |    1.000000 |    0.002627 |    -1304.233698 | <-- min LBFGS
 +------------+-------------+-------------+-----------------+ <-- min LBFGS
  
 LBFGS: finished iteration     1 with enthalpy= -1.30423370E+003 eV
  
 +-----------+-----------------+-----------------+------------+-----+ <-- LBFGS
 | Parameter |      value      |    tolerance    |    units   | OK? | <-- LBFGS
 +-----------+-----------------+-----------------+------------+-----+ <-- LBFGS
 |  dE/ion   |   1.068968E-005 |   2.000000E-005 |         eV | Yes | <-- LBFGS
 |   Smax    |   1.779232E-001 |   1.000000E-001 |        GPa | No  | <-- LBFGS
 +-----------+-----------------+-----------------+------------+-----+ <-- LBFGS
  

================================================================================
 Starting LBFGS iteration          2 ...
================================================================================
  
 +------------+-------------+-------------+-----------------+ <-- min LBFGS
 |    Step    |   lambda    |   F.delta'  |    enthalpy     | <-- min LBFGS
 +------------+-------------+-------------+-----------------+ <-- min LBFGS
 |  previous  |    0.000000 |    0.002627 |    -1304.233698 | <-- min LBFGS
 +------------+-------------+-------------+-----------------+ <-- min LBFGS
  

--------------------------------------------------------------------------------
 LBFGS: starting iteration         2 with trial guess (lambda=  1.000000)
--------------------------------------------------------------------------------
 
                           -------------------------------
                                      Unit Cell
                           -------------------------------
        Real Lattice(A)              Reciprocal Lattice(1/A)
   3.6408839   0.0000000   0.0000000        1.7257307   0.6101380   1.0567900
  -1.2136280   3.4326583   0.0000000       -0.0000000   1.8304139   1.0567900
  -1.2136280  -1.7163292   2.9727692       -0.0000000  -0.0000000   2.1135799
 
                       Lattice parameters(A)       Cell Angles
                    a =    3.640884          alpha =  109.471221
                    b =    3.640884          beta  =  109.471221
                    c =    3.640884          gamma =  109.471221
 
                Current cell volume =   37.153403 A**3
 
------------------------------------------------------------------------ <-- SCF
SCF loop      Energy           Fermi           Energy gain       Timer   <-- SCF
                               energy          per atom          (sec)   <-- SCF
------------------------------------------------------------------------ <-- SCF
Initial  -1.30422284E+003  0.00000000E+000                         1.12  <-- SCF
      1  -1.30423374E+003  8.92975025E-001   1.09039120E-002       1.15  <-- SCF
      2  -1.30423374E+003  8.92975018E-001   2.20457143E-007       1.18  <-- SCF
      3  -1.30423372E+003  8.92517954E-001  -2.40400753E-005       1.23  <-- SCF
      4  -1.30423371E+003  8.92526756E-001  -3.66668918E-006       1.26  <-- SCF
      5  -1.30423371E+003  8.92514092E-001   6.14154173E-007       1.30  <-- SCF
------------------------------------------------------------------------ <-- SCF
 
Final energy, E             =  -1304.222959187     eV
Final free energy (E-TS)    =  -1304.233712658     eV
(energies not corrected for finite basis set)
 
NB est. 0K energy (E-0.5TS)      =  -1304.228335923     eV
 
 
 ***************** Stress Tensor *****************
 *                                               *
 *          Cartesian components (GPa)           *
 * --------------------------------------------- *
 *             x             y             z     *
 *                                               *
 *  x      0.173400     -0.000000     -0.000000  *
 *  y     -0.000000      0.173400     -0.000000  *
 *  z     -0.000000     -0.000000      0.173400  *
 *                                               *
 *  Pressure:   -0.1734                          *
 *                                               *
 *************************************************
 
 *********** Constrained Stress Tensor ***********
 *                                               *
 *          Cartesian components (GPa)           *
 * --------------------------------------------- *
 *             x             y             z     *
 *                                               *
 *  x      0.173440     -0.000000     -0.000000  *
 *  y     -0.000000      0.173440     -0.000000  *
 *  z     -0.000000     -0.000000      0.173440  *
 *                                               *
 *  Pressure:   -0.1734                          *
 *                                               *
 *************************************************
  
 +------------+-------------+-------------+-----------------+ <-- min LBFGS
 |    Step    |   lambda    |   F.delta'  |    enthalpy     | <-- min LBFGS
 +------------+-------------+-------------+-----------------+ <-- min LBFGS
 |  previous  |    0.000000 |    0.002627 |    -1304.233698 | <-- min LBFGS
 | trial step |    1.000000 |    0.002560 |    -1304.233713 | <-- min LBFGS
 +------------+-------------+-------------+-----------------+ <-- min LBFGS
  
 LBFGS: finished iteration     2 with enthalpy= -1.30423371E+003 eV
  
 +-----------+-----------------+-----------------+------------+-----+ <-- LBFGS
 | Parameter |      value      |    tolerance    |    units   | OK? | <-- LBFGS
 +-----------+-----------------+-----------------+------------+-----+ <-- LBFGS
 |  dE/ion   |   1.511419E-005 |   2.000000E-005 |         eV | Yes | <-- LBFGS
 |   Smax    |   1.733999E-001 |   1.000000E-001 |        GPa | No  | <-- LBFGS
 +-----------+-----------------+-----------------+------------+-----+ <-- LBFGS
  
 LBFGS: WARNING - Geometry optimization failed to converge after          2 steps

================================================================================
 LBFGS: Final Configuration:
================================================================================
 
                           -------------------------------
                                      Unit Cell
                           -------------------------------
        Real Lattice(A)              Reciprocal Lattice(1/A)
   3.6408839   0.0000000   0.0000000        1.7257307   0.6101380   1.0567900
  -1.2136280   3.4326583   0.0000000       -0.0000000   1.8304139   1.0567900
  -1.2136280  -1.7163292   2.9727692       -0.0000000  -0.0000000   2.1135799
 
                       Lattice parameters(A)       Cell Angles
                    a =    3.640884          alpha =  109.471221
                    b =    3.640884          beta  =  109.471221
                    c =    3.640884          gamma =  109.471221
 
                Current cell volume =   37.153403 A**3
 
 LBFGS: Final Enthalpy     = -1.30423371E+003 eV
 LBFGS: Final bulk modulus unchanged from initial value
  
  **********************************************************
  *** There were at least     2 warnings during this run ***
  *** => please check the whole of this file carefully!  ***
  **********************************************************
 
 ***************************** Symmetrised Forces *****************************
 *                                                                            *
 *                        Cartesian components (eV/A)                         *
 * -------------------------------------------------------------------------- *
 *                   x                    y                    z              *
 *                                                                            *
 * Na        1      0.00000              0.00000              0.00000         *
 *                                                                            *
 ******************************************************************************
 
 *********** Symmetrised Stress Tensor ***********
 *                                               *
 *          Cartesian components (GPa)           *
 * --------------------------------------------- *
 *             x             y             z     *
 *                                               *
 *  x      0.173400     -0.000000     -0.000000  *
 *  y     -0.000000      0.173400     -0.000000  *
 *  z     -0.000000     -0.000000      0.173400  *
 *                                               *
 *  Pressure:   -0.1734                          *
 *                                               *
 *************************************************
 
 Pseudo atomic calculation performed for Na 2s2 2p6 3s1
 
 Converged in 13 iterations to a total energy of -1302.5052 eV
 
Charge spilling parameter for spin component 1 = 0.01%
 
     Atomic Populations (Mulliken)
     -----------------------------
Species   Ion     s      p      d      f     Total  Charge (e)
==============================================================
  Na       1     2.36   6.64   0.00   0.00   9.00     0.00
==============================================================
 
            Bond              Population      Length (A)
============================================================
============================================================
 
Initialisation time =      0.20 s
Calculation time    =      1.30 s
Finalisation time   =      0.01 s
Total time          =      1.51 s
Peak Memory Use     = 137108 kB
  
Overall parallel efficiency rating: Satisfactory (60%)                          
  
Data was distributed by:-
G-vector (3-way); efficiency rating: Satisfactory (65%)                         
k-point (5-way); efficiency rating: Very good (85%)                             
  
Parallel notes:
1) Calculation only took 1.5 s, so efficiency estimates may be inaccurate.      
 +-------------------------------------------------+
 |                                                 |
 |      CCC   AA    SSS  TTTTT  EEEEE  PPPP        |
 |     C     A  A  S       T    E      P   P       |
 |     C     AAAA   SS     T    EEE    PPPP        |
 |     C     A  A     S    T    E      P           |
 |      CCC  A  A  SSS     T    EEEEE  P           |
 |                                                 |
 +-------------------------------------------------+
 |                                                 |
 | Welcome to Academic Release CASTEP version 16.1 |          
 | Ab Initio Total Energy Program                  |
 |                                                 |
 | Authors:                                        |
 | M. Segall, M. Probert, C. Pickard, P. Hasnip,   |
 | S. Clark, K. Refson, J. R. Yates, M. Payne      |
 |                                                 |
 | Contributors:                                   |
 | P. Lindan, P. Haynes, J. White, V. Milman,      |
 | N. Govind, M. Gibson, P. Tulip, V. Cocula,      |
 | B. Montanari, D. Quigley, M. Glover,            |
 | L. Bernasconi, A. Perlov, M. Plummer,           |
 | E. McNellis, J. Meyer, J. Gale, D. Jochym       |
 | J. Aarons, B. Walker, R. Gillen, D. Jones       |
 | T. Green, I. J. Bush, C. J. Armstrong,          |
 | E. J. Higgins, E. L. Brown, M. S. McFly         |
 |                                                 |
 | Copyright (c) 2000 - 2015                       |
 |                                                 |
 |     Distributed under the terms of an           |
 |     Agreement between the United Kingdom        |
 |     Car-Parrinello (UKCP) Consortium,           |
 |     Daresbury Laboratory and Accelrys, Inc.     |
 |                                                 |
 | Please cite                                     |
 |                                                 |
 |     "First principles methods using CASTEP"     |
 |                                                 |
 |         Zeitschrift fuer Kristallographie       |
 |           220(5-6) pp. 567-570 (2005)           |
 |                                                 |
 | S. J. Clark, M. D. Segall, C. J. Pickard,       |
 | P. J. Hasnip, M. J. Probert, K. Refson,         |
 | M. C. Payne                                     |
 |                                                 |
 |       in all publications arising from          |
 |              your use of CASTEP                 |
 |                                                 |
 +-------------------------------------------------+
 
 
 Compiled for linux_x86_64_ifort14 on Mon, 07 Dec 2015 10:43:21 +0000
 from code version 2756eb6097bf+  Tue, 01 Dec 2015 09:30:30 +0000
 Compiler: Intel Fortran 14.0.0.080; Optimisation: fast
 MATHLIBS: Intel MKL(11.1.0) (LAPACK version 3.4.1)
 FFT Lib : mkl
 Fundamental constants values: CODATA 2010
 
 Run started: Mon, 28 Aug 2017 12:22:38 +0100
 Info: number of up-spin electrons is not equal to the
       number of down-spins but spin_polarized=false
     - consider setting spin_polarized=true.
 Warning in parameters_read: it appears you may not have specified enough 
                           - extra bands so you may have trouble with metals
                           - convergence as a consequence. Suggest you 
                           - consider setting nextra_bands=4 at least.
 
 Pseudo atomic calculation performed for Na 2s2 2p6 3s1
 
 Converged in 13 iterations to a total energy of -1302.5052 eV
 
 Calculation parallelised over 15 processes.
 Data is distributed by G-vector(3-way) and k-point(5-way)

 ************************************ Title ************************************
 

 ***************************** General Parameters ******************************
  
 output verbosity                               : normal  (1)
 write checkpoint data to                       : Na-1CollCode53753.check
 type of calculation                            : geometry optimization
 stress calculation                             : on
 density difference calculation                 : off
 electron localisation func (ELF) calculation   : off
 Hirshfeld analysis                             : off
 unlimited duration calculation
 timing information                             : on
 memory usage estimate                          : on
 write final potential to formatted file        : off
 write final density to formatted file          : off
 write structure in CELL formatted file         : on
 write BibTeX reference list                    : off
 write OTFG pseudopotential files               : on
 checkpoint writing                             : off
  
 output         length unit                     : A
 output           mass unit                     : amu
 output           time unit                     : ps
 output         charge unit                     : e
 output           spin unit                     : hbar/2
 output         energy unit                     : eV
 output          force unit                     : eV/A
 output       velocity unit                     : A/ps
 output       pressure unit                     : GPa
 output     inv_length unit                     : 1/A
 output      frequency unit                     : cm-1
 output force constant unit                     : eV/A**2
 output         volume unit                     : A**3
 output   IR intensity unit                     : (D/A)**2/amu
 output         dipole unit                     : D
 output         efield unit                     : eV/A/e
 output        entropy unit                     : J/mol/K
  
 wavefunctions paging                           : none
 random number generator seed                   : randomised (122238183)
 data distribution                              : optimal for this architecture
 optimization strategy                          : maximize speed(+++)

 *********************** Exchange-Correlation Parameters ***********************
  
 using functional                               : Perdew Burke Ernzerhof
 relativistic treatment                         : Koelling-Harmon
 DFT+D: Semi-empirical dispersion correction    : off

 ************************* Pseudopotential Parameters **************************
  
 pseudopotential representation                 : reciprocal space
 <beta|phi> representation                      : reciprocal space
 spin-orbit coupling                            : off

 **************************** Basis Set Parameters *****************************
  
 plane wave basis set cut-off                   :   400.0000   eV
 size of standard grid                          :     1.7500
 size of   fine   gmax                          :    17.9311   1/A
 finite basis set correction                    : none

 **************************** Electronic Parameters ****************************
  
 number of  electrons                           :  9.000    
 net charge of system                           :  0.000    
 treating system as non-spin-polarized
 number of bands                                :          7

 ********************* Electronic Minimization Parameters **********************
  
 Method: Treating system as metallic with density mixing treatment of electrons,
         and number of  SD  steps               :          1
         and number of  CG  steps               :          4
  
 total energy / atom convergence tol.           : 0.1000E-04   eV
 eigen-energy convergence tolerance             : 0.1000E-05   eV
 max force / atom convergence tol.              : ignored
 convergence tolerance window                   :          3   cycles
 max. number of SCF cycles                      :        100
 number of fixed-spin iterations                :         10
 smearing scheme                                : Gaussian
 smearing width                                 : 0.2000       eV
 Fermi energy convergence tolerance             : 0.2721E-13   eV
 periodic dipole correction                     : NONE

 ************************** Density Mixing Parameters **************************
  
 density-mixing scheme                          : Broyden
 max. length of mixing history                  :         20
 charge density mixing amplitude                : 0.8000    
 cut-off energy for mixing                      :  400.0       eV

 *********************** Population Analysis Parameters ************************
  
 Population analysis with cutoff                :  3.000       A

 ********************** Geometry Optimization Parameters ***********************
  
 optimization method                            : LBFGS
 max. no. of LBFGS updates                      : unbounded
 variable cell method                           : fixed basis quality
 max. number of steps                           :          2
 estimated bulk modulus                         :  500.0       GPa
 estimated <frequency>                          :  1668.       cm-1
 geom line minimiser                            : on
 with line minimiser tolerance                  :     0.4000
 total energy convergence tolerance             : 0.2000E-04   eV/atom
        max ionic |force| tolerance             : 0.5000E-01   eV/A
 max ionic |displacement| tolerance             : 0.1000E-02   A
   max |stress component| tolerance             : 0.1000       GPa
 convergence tolerance window                   :          2   steps
 backup results every                           : 2147483647   steps

 *******************************************************************************
  
 
                           -------------------------------
                                      Unit Cell
                           -------------------------------
        Real Lattice(A)                      Reciprocal Lattice(1/A)
   3.6408839   0.0000000   0.0000000        1.7257307   0.6101380   1.0567900
  -1.2136280   3.4326583   0.0000000       -0.0000000   1.8304139   1.0567900
  -1.2136280  -1.7163292   2.9727692       -0.0000000  -0.0000000   2.1135799
 
                       Lattice parameters(A)       Cell Angles
                    a =    3.640884          alpha =  109.471221
                    b =    3.640884          beta  =  109.471221
                    c =    3.640884          gamma =  109.471221
 
                       Current cell volume =   37.153403       A**3
 
                           -------------------------------
                                     Cell Contents
                           -------------------------------
                         Total number of ions in cell =    1
                      Total number of species in cell =    1
                        Max number of any one species =    1
 
            xxxxxxxxxxxxxxxxxxxxxxxxxxxxxxxxxxxxxxxxxxxxxxxxxxxxxxxxxxxx
            x  Element    Atom        Fractional coordinates of atoms  x
            x            Number           u          v          w      x
            x----------------------------------------------------------x
            x  Na           1         0.000000   0.000000   0.000000   x 
            xxxxxxxxxxxxxxxxxxxxxxxxxxxxxxxxxxxxxxxxxxxxxxxxxxxxxxxxxxxx
 
 
                         No user defined ionic velocities
 
                           -------------------------------
                                   Details of Species
                           -------------------------------
 
                               Mass of species in AMU
                                    Na   22.9897700
 
                          Electric Quadrupole Moment (Barn)
                                    Na    0.1040000 Isotope 23
 
                          Files used for pseudopotentials:
                                    Na Na_00PBE.usp
 
                           -------------------------------
                              k-Points For BZ Sampling
                           -------------------------------
                       MP grid size for SCF calculation is  7  7  7
                            with an offset of   0.000  0.000  0.000
                       Number of kpoints used =            20
 
                           -------------------------------
                               Symmetry and Constraints
                           -------------------------------
 
                      Maximum deviation from symmetry = 0.352503E-14     ANG
 
                      Number of symmetry operations   =          48
                      Number of ionic constraints     =           3
                      Point group of crystal =    32: Oh, m-3m, 4/m -3 2/m
                      Space group of crystal =   229: Im-3m, -I 4 2 3
 
             Set iprint > 1 for details on symmetry rotations/translations
 
                         Centre of mass is constrained
             Set iprint > 1 for details of linear ionic constraints
 
                         Number of cell constraints= 4
                         Cell constraints are:  1 1 1 4 4 4
 
                         External pressure/stress (GPa)
                          0.00000   0.00000   0.00000
                                    0.00000   0.00000
                                              0.00000
  
+---------------- MEMORY AND SCRATCH DISK ESTIMATES PER PROCESS --------------+
|                                                     Memory          Disk    |
| Baseline code, static data and system overhead      113.0 MB         0.0 MB |
| BLAS internal memory storage                          0.0 MB         0.0 MB |
| Model and support data                                4.5 MB         0.0 MB |
| Electronic energy minimisation requirements           0.9 MB         0.0 MB |
| Force calculation requirements                        0.6 MB         0.0 MB |
| Stress calculation requirements                       0.7 MB         0.0 MB |
|                                               ----------------------------- |
| Approx. total storage required per process          118.4 MB         0.0 MB |
|                                                                             |
| Requirements will fluctuate during execution and may exceed these estimates |
+-----------------------------------------------------------------------------+
------------------------------------------------------------------------ <-- SCF
SCF loop      Energy           Fermi           Energy gain       Timer   <-- SCF
                               energy          per atom          (sec)   <-- SCF
------------------------------------------------------------------------ <-- SCF
Initial  -1.30680268E+003  0.00000000E+000                         0.32  <-- SCF
      1  -1.29434531E+003  3.78725296E+000  -1.24573684E+001       0.37  <-- SCF
      2  -1.30413262E+003  9.97122734E-001   9.78730469E+000       0.40  <-- SCF
      3  -1.30423258E+003  9.44331680E-001   9.99619280E-002       0.44  <-- SCF
[...]
 max. number of SCF cycles                      :        100
 number of fixed-spin iterations                :         10
 smearing scheme                                : Gaussian
 smearing width                                 : 0.2000       eV
 Fermi energy convergence tolerance             : 0.2721E-13   eV
 periodic dipole correction                     : NONE

 ************************** Density Mixing Parameters **************************
  
 density-mixing scheme                          : Broyden
 max. length of mixing history                  :         20
 charge density mixing amplitude                : 0.8000    
 cut-off energy for mixing                      :  400.0       eV

 *********************** Population Analysis Parameters ************************
  
 Population analysis with cutoff                :  3.000       A

 ********************** Geometry Optimization Parameters ***********************
  
 optimization method                            : LBFGS
 max. no. of LBFGS updates                      : unbounded
 variable cell method                           : fixed basis quality
 max. number of steps                           :         20
 estimated bulk modulus                         :  500.0       GPa
 estimated <frequency>                          :  1668.       cm-1
 geom line minimiser                            : on
 with line minimiser tolerance                  :     0.4000
 total energy convergence tolerance             : 0.2000E-04   eV/atom
        max ionic |force| tolerance             : 0.5000E-01   eV/A
 max ionic |displacement| tolerance             : 0.1000E-02   A
   max |stress component| tolerance             : 0.1000       GPa
 convergence tolerance window                   :          2   steps
 backup results every                           : 2147483647   steps

 *******************************************************************************
  
 
                           -------------------------------
                                      Unit Cell
                           -------------------------------
        Real Lattice(A)                      Reciprocal Lattice(1/A)
   3.6283036   0.0000000   0.0000000        1.7317143   0.6122535   1.0604542
  -1.2094346   3.4207974   0.0000000       -0.0000000   1.8367604   1.0604542
  -1.2094346  -1.7103988   2.9624975       -0.0000000  -0.0000000   2.1209082
 
                       Lattice parameters(A)       Cell Angles
                    a =    3.628304          alpha =  109.471221
                    b =    3.628304          beta  =  109.471221
                    c =    3.628304          gamma =  109.471221
 
                       Current cell volume =   36.769605       A**3
 
                           -------------------------------
                                     Cell Contents
                           -------------------------------
                         Total number of ions in cell =    1
                      Total number of species in cell =    1
                        Max number of any one species =    1
 
            xxxxxxxxxxxxxxxxxxxxxxxxxxxxxxxxxxxxxxxxxxxxxxxxxxxxxxxxxxxx
            x  Element    Atom        Fractional coordinates of atoms  x
            x            Number           u          v          w      x
            x----------------------------------------------------------x
            x  Na           1         0.000000   0.000000   0.000000   x 
            xxxxxxxxxxxxxxxxxxxxxxxxxxxxxxxxxxxxxxxxxxxxxxxxxxxxxxxxxxxx
 
 
                         No user defined ionic velocities
 
                           -------------------------------
                                   Details of Species
                           -------------------------------
 
                               Mass of species in AMU
                                    Na   22.9897700
 
                          Electric Quadrupole Moment (Barn)
                                    Na    0.1040000 Isotope 23
 
                          Files used for pseudopotentials:
                                    Na Na_00PBE.usp
 
                           -------------------------------
                              k-Points For BZ Sampling
                           -------------------------------
                       MP grid size for SCF calculation is  7  7  7
                            with an offset of   0.000  0.000  0.000
                       Number of kpoints used =            20
 
                           -------------------------------
                               Symmetry and Constraints
                           -------------------------------
 
                      Maximum deviation from symmetry = 0.141001E-14     ANG
 
                      Number of symmetry operations   =          48
                      Number of ionic constraints     =           3
                      Point group of crystal =    32: Oh, m-3m, 4/m -3 2/m
                      Space group of crystal =   229: Im-3m, -I 4 2 3
 
             Set iprint > 1 for details on symmetry rotations/translations
 
                         Centre of mass is constrained
             Set iprint > 1 for details of linear ionic constraints
 
                         Number of cell constraints= 4
                         Cell constraints are:  1 1 1 4 4 4
 
                         External pressure/stress (GPa)
                          0.00000   0.00000   0.00000
                                    0.00000   0.00000
                                              0.00000
  
+---------------- MEMORY AND SCRATCH DISK ESTIMATES PER PROCESS --------------+
|                                                     Memory          Disk    |
| Baseline code, static data and system overhead      113.0 MB         0.0 MB |
| BLAS internal memory storage                          0.0 MB         0.0 MB |
| Model and support data                                4.5 MB         0.0 MB |
| Electronic energy minimisation requirements           0.9 MB         0.0 MB |
| Force calculation requirements                        0.6 MB         0.0 MB |
| Stress calculation requirements                       0.7 MB         0.0 MB |
|                                               ----------------------------- |
| Approx. total storage required per process          118.4 MB         0.0 MB |
|                                                                             |
| Requirements will fluctuate during execution and may exceed these estimates |
+-----------------------------------------------------------------------------+
------------------------------------------------------------------------ <-- SCF
SCF loop      Energy           Fermi           Energy gain       Timer   <-- SCF
                               energy          per atom          (sec)   <-- SCF
------------------------------------------------------------------------ <-- SCF
Initial  -1.30802729E+003  0.00000000E+000                         0.34  <-- SCF
      1  -1.29370585E+003  3.44728581E+000  -1.43214380E+001       0.39  <-- SCF
      2  -1.30410030E+003  1.11961356E+000   1.03944547E+001       0.42  <-- SCF
      3  -1.30423230E+003  9.80035163E-001   1.31995782E-001       0.46  <-- SCF
      4  -1.30423362E+003  9.49765168E-001   1.31921735E-003       0.51  <-- SCF
      5  -1.30423370E+003  9.28056265E-001   8.56906850E-005       0.57  <-- SCF
      6  -1.30423370E+003  9.28019999E-001  -2.24748436E-006       0.61  <-- SCF
      7  -1.30423370E+003  9.28144780E-001  -3.80990552E-007       0.65  <-- SCF
------------------------------------------------------------------------ <-- SCF
 
Final energy, E             =  -1304.223013419     eV
Final free energy (E-TS)    =  -1304.233701703     eV
(energies not corrected for finite basis set)
 
NB est. 0K energy (E-0.5TS)      =  -1304.228357561     eV
 

WARNING - doing cell minimisation without finite basis correction:
        => now searching for a stationary and not minimum energy
 
+---------------- MEMORY AND SCRATCH DISK ESTIMATES PER PROCESS --------------+
|                                                     Memory          Disk    |
| Model and support data                               15.4 MB         0.0 MB |
| Electronic energy minimisation requirements           0.9 MB         0.0 MB |
| Geometry minimisation requirements                    1.1 MB         0.0 MB |
|                                               ----------------------------- |
| Approx. total storage required per process           17.3 MB         0.0 MB |
|                                                                             |
| Requirements will fluctuate during execution and may exceed these estimates |
+-----------------------------------------------------------------------------+
 
 
 ***************** Stress Tensor *****************
 *                                               *
 *          Cartesian components (GPa)           *
 * --------------------------------------------- *
 *             x             y             z     *
 *                                               *
 *  x      0.104757     -0.000000     -0.000000  *
 *  y     -0.000000      0.104757     -0.000000  *
 *  z     -0.000000     -0.000000      0.104757  *
 *                                               *
 *  Pressure:   -0.1048                          *
 *                                               *
 *************************************************
 WARNING - unable to rigorously enforce cell constraints
         - proceed with caution
 
 *********** Constrained Stress Tensor ***********
 *                                               *
 *          Cartesian components (GPa)           *
 * --------------------------------------------- *
 *             x             y             z     *
 *                                               *
 *  x      0.104771     -0.000000     -0.000000  *
 *  y     -0.000000      0.104771     -0.000000  *
 *  z     -0.000000     -0.000000      0.104771  *
 *                                               *
 *  Pressure:   -0.1048                          *
 *                                               *
 *************************************************
 LBFGS: finished iteration     0 with enthalpy= -1.30423370E+003 eV
  
 +-----------+-----------------+-----------------+------------+-----+ <-- LBFGS
 | Parameter |      value      |    tolerance    |    units   | OK? | <-- LBFGS
 +-----------+-----------------+-----------------+------------+-----+ <-- LBFGS
 |  dE/ion   |   0.000000E+000 |   2.000000E-005 |         eV | No  | <-- LBFGS
 |   Smax    |   1.047566E-001 |   1.000000E-001 |        GPa | No  | <-- LBFGS
 +-----------+-----------------+-----------------+------------+-----+ <-- LBFGS
  

================================================================================
 Starting LBFGS iteration          1 ...
================================================================================
  
 +------------+-------------+-------------+-----------------+ <-- min LBFGS
 |    Step    |   lambda    |   F.delta'  |    enthalpy     | <-- min LBFGS
 +------------+-------------+-------------+-----------------+ <-- min LBFGS
 |  previous  |    0.000000 |    0.001530 |    -1304.233702 | <-- min LBFGS
 +------------+-------------+-------------+-----------------+ <-- min LBFGS
  
 WARNING - unable to rigorously enforce cell constraints
         - proceed with caution

--------------------------------------------------------------------------------
 LBFGS: starting iteration         1 with trial guess (lambda=  1.000000)
--------------------------------------------------------------------------------
 
                           -------------------------------
                                      Unit Cell
                           -------------------------------
        Real Lattice(A)              Reciprocal Lattice(1/A)
   3.6280502   0.0000000   0.0000000        1.7318353   0.6122962   1.0605282
  -1.2093501   3.4205585   0.0000000       -0.0000000   1.8368887   1.0605282
  -1.2093501  -1.7102793   2.9622906       -0.0000000  -0.0000000   2.1210564
 
                       Lattice parameters(A)       Cell Angles
                    a =    3.628050          alpha =  109.471221
                    b =    3.628050          beta  =  109.471221
                    c =    3.628050          gamma =  109.471221
 
                Current cell volume =   36.761902 A**3
 
------------------------------------------------------------------------ <-- SCF
SCF loop      Energy           Fermi           Energy gain       Timer   <-- SCF
                               energy          per atom          (sec)   <-- SCF
------------------------------------------------------------------------ <-- SCF
Initial  -1.30422292E+003  0.00000000E+000                         1.34  <-- SCF
      1  -1.30423372E+003  9.29199867E-001   1.07916460E-002       1.37  <-- SCF
      2  -1.30423372E+003  9.29199864E-001   7.63326423E-008       1.41  <-- SCF
      3  -1.30423371E+003  9.28931980E-001  -8.07687321E-006       1.45  <-- SCF
      4  -1.30423371E+003  9.28944171E-001  -9.41874114E-007       1.49  <-- SCF
------------------------------------------------------------------------ <-- SCF
 
Final energy, E             =  -1304.223019263     eV
Final free energy (E-TS)    =  -1304.233706274     eV
(energies not corrected for finite basis set)
 
NB est. 0K energy (E-0.5TS)      =  -1304.228362769     eV
 
 
 ***************** Stress Tensor *****************
 *                                               *
 *          Cartesian components (GPa)           *
 * --------------------------------------------- *
 *             x             y             z     *
 *                                               *
 *  x      0.096621     -0.000000     -0.000000  *
 *  y     -0.000000      0.096621     -0.000000  *
 *  z     -0.000000     -0.000000      0.096621  *
 *                                               *
 *  Pressure:   -0.0966                          *
 *                                               *
 *************************************************
 WARNING - unable to rigorously enforce cell constraints
         - proceed with caution
 
 *********** Constrained Stress Tensor ***********
 *                                               *
 *          Cartesian components (GPa)           *
 * --------------------------------------------- *
 *             x             y             z     *
 *                                               *
 *  x      0.096634     -0.000000     -0.000000  *
 *  y     -0.000000      0.096634     -0.000000  *
 *  z     -0.000000     -0.000000      0.096634  *
 *                                               *
 *  Pressure:   -0.0966                          *
 *                                               *
 *************************************************
  
 +------------+-------------+-------------+-----------------+ <-- min LBFGS
 |    Step    |   lambda    |   F.delta'  |    enthalpy     | <-- min LBFGS
 +------------+-------------+-------------+-----------------+ <-- min LBFGS
 |  previous  |    0.000000 |    0.001530 |    -1304.233702 | <-- min LBFGS
 | trial step |    1.000000 |    0.001411 |    -1304.233706 | <-- min LBFGS
 +------------+-------------+-------------+-----------------+ <-- min LBFGS
  
 LBFGS: finished iteration     1 with enthalpy= -1.30423371E+003 eV
  
 +-----------+-----------------+-----------------+------------+-----+ <-- LBFGS
 | Parameter |      value      |    tolerance    |    units   | OK? | <-- LBFGS
 +-----------+-----------------+-----------------+------------+-----+ <-- LBFGS
 |  dE/ion   |   4.570618E-006 |   2.000000E-005 |         eV | Yes | <-- LBFGS
 |   Smax    |   9.662119E-002 |   1.000000E-001 |        GPa | Yes | <-- LBFGS
 +-----------+-----------------+-----------------+------------+-----+ <-- LBFGS
  
 LBFGS: Geometry optimization completed successfully.

================================================================================
 LBFGS: Final Configuration:
================================================================================
 
                           -------------------------------
                                      Unit Cell
                           -------------------------------
        Real Lattice(A)              Reciprocal Lattice(1/A)
   3.6280502   0.0000000   0.0000000        1.7318353   0.6122962   1.0605282
  -1.2093501   3.4205585   0.0000000       -0.0000000   1.8368887   1.0605282
  -1.2093501  -1.7102793   2.9622906       -0.0000000  -0.0000000   2.1210564
 
                       Lattice parameters(A)       Cell Angles
                    a =    3.628050          alpha =  109.471221
                    b =    3.628050          beta  =  109.471221
                    c =    3.628050          gamma =  109.471221
 
                Current cell volume =   36.761902 A**3
 
 LBFGS: Final Enthalpy     = -1.30423371E+003 eV
 LBFGS: Final bulk modulus unchanged from initial value
  
  **********************************************************
  *** There were at least     4 warnings during this run ***
  *** => please check the whole of this file carefully!  ***
  **********************************************************
 
 ***************************** Symmetrised Forces *****************************
 *                                                                            *
 *                        Cartesian components (eV/A)                         *
 * -------------------------------------------------------------------------- *
 *                   x                    y                    z              *
 *                                                                            *
 * Na        1      0.00000              0.00000              0.00000         *
 *                                                                            *
 ******************************************************************************
 
 *********** Symmetrised Stress Tensor ***********
 *                                               *
 *          Cartesian components (GPa)           *
 * --------------------------------------------- *
 *             x             y             z     *
 *                                               *
 *  x      0.096621     -0.000000     -0.000000  *
 *  y     -0.000000      0.096621     -0.000000  *
 *  z     -0.000000     -0.000000      0.096621  *
 *                                               *
 *  Pressure:   -0.0966                          *
 *                                               *
 *************************************************
 
 Pseudo atomic calculation performed for Na 2s2 2p6 3s1
 
 Converged in 13 iterations to a total energy of -1302.5052 eV
 
Charge spilling parameter for spin component 1 = 0.01%
 
     Atomic Populations (Mulliken)
     -----------------------------
Species   Ion     s      p      d      f     Total  Charge (e)
==============================================================
  Na       1     2.36   6.64   0.00   0.00   9.00     0.00
==============================================================
 
            Bond              Population      Length (A)
============================================================
============================================================
 
Initialisation time =      0.21 s
Calculation time    =      1.79 s
Finalisation time   =      0.01 s
Total time          =      2.02 s
Peak Memory Use     = 131368 kB
  
Overall parallel efficiency rating: Satisfactory (66%)                          
  
Data was distributed by:-
G-vector (3-way); efficiency rating: Very good (80%)                            
k-point (5-way); efficiency rating: Very good (87%)                             
  
Parallel notes:
1) Calculation only took 2.0 s, so efficiency estimates may be inaccurate.      
