 +-------------------------------------------------+
 |                                                 |
 |      CCC   AA    SSS  TTTTT  EEEEE  PPPP        |
 |     C     A  A  S       T    E      P   P       |
 |     C     AAAA   SS     T    EEE    PPPP        |
 |     C     A  A     S    T    E      P           |
 |      CCC  A  A  SSS     T    EEEEE  P           |
 |                                                 |
 +-------------------------------------------------+
 |                                                 |
 | Welcome to Academic Release CASTEP version 16.11|          
 | Ab Initio Total Energy Program                  |
 |                                                 |
 | Authors:                                        |
 | M. Segall, M. Probert, C. Pickard, P. Hasnip,   |
 | S. Clark, K. Refson, J. R. Yates, M. Payne      |
 |                                                 |
 | Contributors:                                   |
 | P. Lindan, P. Haynes, J. White, V. Milman,      |
 | N. Govind, M. Gibson, P. Tulip, V. Cocula,      |
 | B. Montanari, D. Quigley, M. Glover,            |
 | L. Bernasconi, A. Perlov, M. Plummer,           |
 | E. McNellis, J. Meyer, J. Gale, D. Jochym       |
 | J. Aarons, B. Walker, R. Gillen, D. Jones       |
 | T. Green, I. J. Bush, C. J. Armstrong,          |
 | E. J. Higgins, E. L. Brown, M. S. McFly         |
 |                                                 |
 | Copyright (c) 2000 - 2015                       |
 |                                                 |
 |     Distributed under the terms of an           |
 |     Agreement between the United Kingdom        |
 |     Car-Parrinello (UKCP) Consortium,           |
 |     Daresbury Laboratory and Accelrys, Inc.     |
 |                                                 |
 | Please cite                                     |
 |                                                 |
 |     "First principles methods using CASTEP"     |
 |                                                 |
 |         Zeitschrift fuer Kristallographie       |
 |           220(5-6) pp. 567-570 (2005)           |
 |                                                 |
 | S. J. Clark, M. D. Segall, C. J. Pickard,       |
 | P. J. Hasnip, M. J. Probert, K. Refson,         |
 | M. C. Payne                                     |
 |                                                 |
 |       in all publications arising from          |
 |              your use of CASTEP                 |
 |                                                 |
 +-------------------------------------------------+
 
 
 Compiled for linux_x86_64_ifort12 on Mon, 22 Aug 2016 13:11:39 +0100
 from code version 
 203e84763863+ Castep161_branch Fri, 04 Mar 2016 19:21:07 +0000
 Compiler: Intel Fortran 12.1; Optimisation: fast
 MATHLIBS: Intel MKL(10.3.10) (LAPACK version 3.4.0)
 FFT Lib : mkl
 Fundamental constants values: CODATA 2010
 
 Run started: Tue, 13 Dec 2016 00:03:08 +0000
 
 Pseudo atomic calculation performed for Na 2s2 2p6 3s1
 
 Converged in 21 iterations to a total energy of -1302.6336 eV
 
 
 Pseudo atomic calculation performed for Zn 3d10 4s2
 
 Converged in 39 iterations to a total energy of -1708.2632 eV
 
 Calculation parallelised over 15 processes.
 Data is distributed by k-point(15-way)

 ************************************ Title ************************************
 

 ***************************** General Parameters ******************************
  
 output verbosity                               : normal  (1)
 write checkpoint data to                       : Na3Zn4-OQMD_759599.check
 type of calculation                            : geometry optimization
 stress calculation                             : on
 density difference calculation                 : off
 electron localisation func (ELF) calculation   : off
 Hirshfeld analysis                             : off
 unlimited duration calculation
 timing information                             : on
 memory usage estimate                          : on
 write final potential to formatted file        : off
 write final density to formatted file          : off
 write BibTeX reference list                    : off
 write OTFG pseudopotential files               : on
 checkpoint writing                             : off
  
 output         length unit                     : A
 output           mass unit                     : amu
 output           time unit                     : ps
 output         charge unit                     : e
 output           spin unit                     : hbar/2
 output         energy unit                     : eV
 output          force unit                     : eV/A
 output       velocity unit                     : A/ps
 output       pressure unit                     : GPa
 output     inv_length unit                     : 1/A
 output      frequency unit                     : cm-1
 output force constant unit                     : eV/A**2
 output         volume unit                     : A**3
 output   IR intensity unit                     : (D/A)**2/amu
 output         dipole unit                     : D
 output         efield unit                     : eV/A/e
 output        entropy unit                     : J/mol/K
  
 wavefunctions paging                           : none
 random number generator seed                   : randomised (308836)
 data distribution                              : optimal for this architecture
 optimization strategy                          : maximize speed(+++)

 *********************** Exchange-Correlation Parameters ***********************
  
 using functional                               : Perdew Burke Ernzerhof
 relativistic treatment                         : Koelling-Harmon
 DFT+D: Semi-empirical dispersion correction    : off

 ************************* Pseudopotential Parameters **************************
  
 pseudopotential representation                 : reciprocal space
 <beta|phi> representation                      : reciprocal space
 spin-orbit coupling                            : off

 **************************** Basis Set Parameters *****************************
  
 plane wave basis set cut-off                   :   500.0000   eV
 size of standard grid                          :     1.7500
 size of   fine   gmax                          :    20.0476   1/A
 finite basis set correction                    : none

 **************************** Electronic Parameters ****************************
  
 number of  electrons                           :  150.0    
 net charge of system                           :  0.000    
 treating system as non-spin-polarized
 number of bands                                :        105

 ********************* Electronic Minimization Parameters **********************
  
 Method: Treating system as metallic with density mixing treatment of electrons,
         and number of  SD  steps               :          1
         and number of  CG  steps               :          4
  
 total energy / atom convergence tol.           : 0.1000E-04   eV
 eigen-energy convergence tolerance             : 0.1000E-05   eV
 max force / atom convergence tol.              : ignored
 convergence tolerance window                   :          3   cycles
 max. number of SCF cycles                      :        100
 number of fixed-spin iterations                :         10
 smearing scheme                                : Gaussian
 smearing width                                 : 0.2000       eV
 Fermi energy convergence tolerance             : 0.2721E-13   eV
 periodic dipole correction                     : NONE

 ************************** Density Mixing Parameters **************************
  
 density-mixing scheme                          : Broyden
 max. length of mixing history                  :         20
 charge density mixing amplitude                : 0.8000    
 cut-off energy for mixing                      :  500.0       eV

 *********************** Population Analysis Parameters ************************
  
 Population analysis with cutoff                :  3.000       A

 ********************** Geometry Optimization Parameters ***********************
  
 optimization method                            : LBFGS
 max. no. of LBFGS updates                      : unbounded
 variable cell method                           : fixed basis quality
 max. number of steps                           :          2
 estimated bulk modulus                         :  500.0       GPa
 estimated <frequency>                          :  1668.       cm-1
 geom line minimiser                            : on
 with line minimiser tolerance                  :     0.4000
 total energy convergence tolerance             : 0.2000E-04   eV/atom
        max ionic |force| tolerance             : 0.5000E-01   eV/A
 max ionic |displacement| tolerance             : 0.1000E-02   A
   max |stress component| tolerance             : 0.1000       GPa
 convergence tolerance window                   :          2   steps
 backup results every                           : 2147483647   steps

 *******************************************************************************
  
 
                           -------------------------------
                                      Unit Cell
                           -------------------------------
        Real Lattice(A)                      Reciprocal Lattice(1/A)
   8.6056900   0.0000000   0.0000000        0.7301199  -0.4216392   0.0000000
   4.2960122   7.4390703   0.0000000        0.0000000   0.8446197   0.0000000
   0.0000000   0.0000000   4.3248300        0.0000000   0.0000000   1.4528167
 
                       Lattice parameters(A)       Cell Angles
                    a =    8.605690          alpha =   90.000000
                    b =    8.590430          beta  =   90.000000
                    c =    4.324830          gamma =   59.993860
 
                       Current cell volume =  276.868406       A**3
 
                           -------------------------------
                                     Cell Contents
                           -------------------------------
                         Total number of ions in cell =   14
                      Total number of species in cell =    2
                        Max number of any one species =    8
 
            xxxxxxxxxxxxxxxxxxxxxxxxxxxxxxxxxxxxxxxxxxxxxxxxxxxxxxxxxxxx
            x  Element    Atom        Fractional coordinates of atoms  x
            x            Number           u          v          w      x
            x----------------------------------------------------------x
            x  Na           1         0.766338   0.470391   0.000000   x 
            x  Na           2         0.327048   0.476496   0.000000   x 
            x  Na           3         0.334046   0.911014   0.000000   x 
            x  Na           4         0.618329   0.327083   0.500000   x 
            x  Na           5         0.625270   0.761647   0.500000   x 
            x  Na           6         0.185948   0.767834   0.500000   x 
            x  Zn           1         0.921424   0.060668   0.000000   x 
            x  Zn           2         0.590410   0.063578   0.000000   x 
            x  Zn           3         0.141311   0.286751   0.000000   x 
            x  Zn           4         0.918030   0.731592   0.000000   x 
            x  Zn           5         0.362382   0.174436   0.500000   x 
            x  Zn           6         0.030774   0.177557   0.500000   x 
            x  Zn           7         0.034070   0.506495   0.500000   x 
            x  Zn           8         0.811188   0.951025   0.500000   x 
            xxxxxxxxxxxxxxxxxxxxxxxxxxxxxxxxxxxxxxxxxxxxxxxxxxxxxxxxxxxx
 
 
                         No user defined ionic velocities
 
                           -------------------------------
                                   Details of Species
                           -------------------------------
 
                               Mass of species in AMU
                                    Na   22.9897700
                                    Zn   65.3900000
 
                          Electric Quadrupole Moment (Barn)
                                    Na    0.1040000 Isotope 23
                                    Zn    0.1500000 Isotope 67
 
                          Files used for pseudopotentials:
                                    Na Na_00PBE.usp
                                    Zn Zn_00PBE.usp
 
                           -------------------------------
                              k-Points For BZ Sampling
                           -------------------------------
                       MP grid size for SCF calculation is  3  3  5
                            with an offset of   0.000  0.000  0.000
                       Number of kpoints used =            15
 
                           -------------------------------
                               Symmetry and Constraints
                           -------------------------------
 
                      Maximum deviation from symmetry =  0.00000         ANG
 
                      Number of symmetry operations   =           2
                      Number of ionic constraints     =           3
                      Point group of crystal =     3: Cs, m, m
                      Space group of crystal =     6: Pm, P -2y
 
             Set iprint > 1 for details on symmetry rotations/translations
 
                         Centre of mass is constrained
             Set iprint > 1 for details of linear ionic constraints
 
                         Number of cell constraints= 2
                         Cell constraints are:  1 2 3 0 0 6
 
                         External pressure/stress (GPa)
                          0.00000   0.00000   0.00000
                                    0.00000   0.00000
                                              0.00000
  
+---------------- MEMORY AND SCRATCH DISK ESTIMATES PER PROCESS --------------+
|                                                     Memory          Disk    |
| Baseline code, static data and system overhead      333.0 MB         0.0 MB |
| BLAS internal memory storage                          0.0 MB         0.0 MB |
| Model and support data                              244.3 MB         0.0 MB |
| Electronic energy minimisation requirements          50.7 MB         0.0 MB |
| Force calculation requirements                       12.4 MB         0.0 MB |
| Stress calculation requirements                      15.7 MB         0.0 MB |
|                                               ----------------------------- |
| Approx. total storage required per process          627.9 MB         0.0 MB |
|                                                                             |
| Requirements will fluctuate during execution and may exceed these estimates |
+-----------------------------------------------------------------------------+
------------------------------------------------------------------------ <-- SCF
SCF loop      Energy           Fermi           Energy gain       Timer   <-- SCF
                               energy          per atom          (sec)   <-- SCF
------------------------------------------------------------------------ <-- SCF
Initial  -2.10688497E+004  0.00000000E+000                         2.89  <-- SCF
      1  -2.09754356E+004  4.23696555E+000  -6.67243369E+000       7.98  <-- SCF
      2  -2.14923583E+004  4.00542310E+000   3.69230494E+001      11.28  <-- SCF
      3  -2.15039681E+004  3.95383388E+000   8.29271863E-001      14.72  <-- SCF
      4  -2.15041781E+004  3.72319937E+000   1.49980433E-002      19.88  <-- SCF
      5  -2.15033474E+004  3.80014981E+000  -5.93331498E-002      24.94  <-- SCF
      6  -2.15033889E+004  3.79616471E+000   2.96466254E-003      30.65  <-- SCF
      7  -2.15033895E+004  3.79273076E+000   4.03339858E-005      35.13  <-- SCF
      8  -2.15033895E+004  3.79208498E+000   1.66574390E-006      38.49  <-- SCF
      9  -2.15033895E+004  3.79197022E+000  -7.49527139E-008      41.99  <-- SCF
------------------------------------------------------------------------ <-- SCF
 
Final energy, E             =  -21503.27565548     eV
Final free energy (E-TS)    =  -21503.38951675     eV
(energies not corrected for finite basis set)
 
NB est. 0K energy (E-0.5TS)      =  -21503.33258611     eV
 

WARNING - doing cell minimisation without finite basis correction:
        => now searching for a stationary and not minimum energy
 
+---------------- MEMORY AND SCRATCH DISK ESTIMATES PER PROCESS --------------+
|                                                     Memory          Disk    |
| Model and support data                              252.8 MB         0.0 MB |
| Electronic energy minimisation requirements          50.7 MB         0.0 MB |
| Geometry minimisation requirements                   63.2 MB         0.0 MB |
|                                               ----------------------------- |
| Approx. total storage required per process          366.7 MB         0.0 MB |
|                                                                             |
| Requirements will fluctuate during execution and may exceed these estimates |
+-----------------------------------------------------------------------------+
 
 
 *********************************** Forces ***********************************
 *                                                                            *
 *                        Cartesian components (eV/A)                         *
 * -------------------------------------------------------------------------- *
 *                   x                    y                    z              *
 *                                                                            *
 * Na        1      0.01549              0.01015              0.00000         *
 * Na        2     -0.00207             -0.02163              0.00000         *
 * Na        3     -0.01774              0.01139              0.00000         *
 * Na        4      0.01929             -0.01296              0.00000         *
 * Na        5     -0.00092              0.01973              0.00000         *
 * Na        6     -0.01586             -0.01153              0.00000         *
 * Zn        1     -0.02740             -0.00881              0.00000         *
 * Zn        2      0.02034             -0.02223              0.00000         *
 * Zn        3     -0.00139              0.00405              0.00000         *
 * Zn        4      0.01152              0.03038              0.00000         *
 * Zn        5     -0.02574              0.02402              0.00000         *
 * Zn        6      0.02949              0.00742              0.00000         *
 * Zn        7     -0.00794             -0.03168              0.00000         *
 * Zn        8      0.00292              0.00169              0.00000         *
 *                                                                            *
 ******************************************************************************
 
 ***************** Stress Tensor *****************
 *                                               *
 *          Cartesian components (GPa)           *
 * --------------------------------------------- *
 *             x             y             z     *
 *                                               *
 *  x     -1.208355      0.003367      0.000000  *
 *  y      0.003367     -1.210235      0.000000  *
 *  z      0.000000      0.000000      1.589516  *
 *                                               *
 *  Pressure:    0.2764                          *
 *                                               *
 *************************************************
 LBFGS: finished iteration     0 with enthalpy= -2.15033895E+004 eV
  
 +-----------+-----------------+-----------------+------------+-----+ <-- LBFGS
 | Parameter |      value      |    tolerance    |    units   | OK? | <-- LBFGS
 +-----------+-----------------+-----------------+------------+-----+ <-- LBFGS
 |  dE/ion   |   0.000000E+000 |   2.000000E-005 |         eV | No  | <-- LBFGS
 |  |F|max   |   3.520750E-002 |   5.000000E-002 |       eV/A | Yes | <-- LBFGS
 |  |dR|max  |   0.000000E+000 |   1.000000E-003 |          A | No  | <-- LBFGS
 |   Smax    |   1.589516E+000 |   1.000000E-001 |        GPa | No  | <-- LBFGS
 +-----------+-----------------+-----------------+------------+-----+ <-- LBFGS
  

================================================================================
 Starting LBFGS iteration          1 ...
================================================================================
  
 +------------+-------------+-------------+-----------------+ <-- min LBFGS
 |    Step    |   lambda    |   F.delta'  |    enthalpy     | <-- min LBFGS
 +------------+-------------+-------------+-----------------+ <-- min LBFGS
 |  previous  |    0.000000 |    0.148675 |   -21503.389517 | <-- min LBFGS
 +------------+-------------+-------------+-----------------+ <-- min LBFGS
  

--------------------------------------------------------------------------------
 LBFGS: starting iteration         1 with trial guess (lambda=  1.000000)
--------------------------------------------------------------------------------
 
                           -------------------------------
                                      Unit Cell
                           -------------------------------
        Real Lattice(A)              Reciprocal Lattice(1/A)
   8.6126225  -0.0000193   0.0000000        0.7295312  -0.4212977   0.0000000
   4.2994563   7.4450626   0.0000000        0.0000019   0.8439388   0.0000000
   0.0000000   0.0000000   4.3202471        0.0000000   0.0000000   1.4543579
 
                       Lattice parameters(A)       Cell Angles
                    a =    8.612622          alpha =   90.000000
                    b =    8.597342          beta  =   90.000000
                    c =    4.320247          gamma =   59.994084
 
                Current cell volume =  277.021142 A**3
 
                           -------------------------------
                                     Cell Contents
                           -------------------------------
 
            xxxxxxxxxxxxxxxxxxxxxxxxxxxxxxxxxxxxxxxxxxxxxxxxxxxxxxxxxxxx
            x  Element    Atom        Fractional coordinates of atoms  x
            x            Number           u          v          w      x
            x----------------------------------------------------------x
            x  Na           1         0.766340   0.470394   0.000000   x
            x  Na           2         0.327051   0.476490   0.000000   x
            x  Na           3         0.334040   0.911017   0.000000   x
            x  Na           4         0.618335   0.327079   0.500000   x
            x  Na           5         0.625267   0.761652   0.500000   x
            x  Na           6         0.185946   0.767831   0.500000   x
            x  Zn           1         0.921419   0.060666   0.000000   x
            x  Zn           2         0.590418   0.063572   0.000000   x
            x  Zn           3         0.141310   0.286752   0.000000   x
            x  Zn           4         0.918029   0.731600   0.000000   x
            x  Zn           5         0.362372   0.174443   0.500000   x
            x  Zn           6         0.030780   0.177559   0.500000   x
            x  Zn           7         0.034072   0.506486   0.500000   x
            x  Zn           8         0.811188   0.951025   0.500000   x
            xxxxxxxxxxxxxxxxxxxxxxxxxxxxxxxxxxxxxxxxxxxxxxxxxxxxxxxxxxxx
 
 
------------------------------------------------------------------------ <-- SCF
SCF loop      Energy           Fermi           Energy gain       Timer   <-- SCF
                               energy          per atom          (sec)   <-- SCF
------------------------------------------------------------------------ <-- SCF
Initial  -2.15032712E+004  0.00000000E+000                        83.71  <-- SCF
      1  -2.15033984E+004  3.78623134E+000   9.08536097E-003      87.75  <-- SCF
      2  -2.15033985E+004  3.78623132E+000   9.11530925E-006      91.66  <-- SCF
      3  -2.15033980E+004  3.79440208E+000  -3.47229808E-005      96.33  <-- SCF
      4  -2.15033969E+004  3.79094863E+000  -8.14365056E-005     100.59  <-- SCF
      5  -2.15033969E+004  3.79145779E+000   2.00825738E-006     103.91  <-- SCF
      6  -2.15033969E+004  3.79141055E+000  -1.72807173E-008     107.21  <-- SCF
------------------------------------------------------------------------ <-- SCF
 
Final energy, E             =  -21503.28377507     eV
Final free energy (E-TS)    =  -21503.39693363     eV
(energies not corrected for finite basis set)
 
NB est. 0K energy (E-0.5TS)      =  -21503.34035435     eV
 
 
 *********************************** Forces ***********************************
 *                                                                            *
 *                        Cartesian components (eV/A)                         *
 * -------------------------------------------------------------------------- *
 *                   x                    y                    z              *
 *                                                                            *
 * Na        1      0.01352              0.01219              0.00000         *
 * Na        2      0.00064             -0.02081              0.00000         *
 * Na        3     -0.01866              0.00842              0.00000         *
 * Na        4      0.02045             -0.01011              0.00000         *
 * Na        5     -0.00378              0.01896              0.00000         *
 * Na        6     -0.01373             -0.01384              0.00000         *
 * Zn        1     -0.03060             -0.01063              0.00000         *
 * Zn        2      0.02352             -0.02356              0.00000         *
 * Zn        3     -0.00155              0.00434              0.00000         *
 * Zn        4      0.01187              0.03413              0.00000         *
 * Zn        5     -0.02939              0.02568              0.00000         *
 * Zn        6      0.03307              0.00992              0.00000         *
 * Zn        7     -0.00788             -0.03569              0.00000         *
 * Zn        8      0.00251              0.00101              0.00000         *
 *                                                                            *
 ******************************************************************************
 
 ***************** Stress Tensor *****************
 *                                               *
 *          Cartesian components (GPa)           *
 * --------------------------------------------- *
 *             x             y             z     *
 *                                               *
 *  x     -1.193056      0.003039      0.000000  *
 *  y      0.003039     -1.194983      0.000000  *
 *  z      0.000000      0.000000      1.549178  *
 *                                               *
 *  Pressure:    0.2796                          *
 *                                               *
 *************************************************
  
 +------------+-------------+-------------+-----------------+ <-- min LBFGS
 |    Step    |   lambda    |   F.delta'  |    enthalpy     | <-- min LBFGS
 +------------+-------------+-------------+-----------------+ <-- min LBFGS
 |  previous  |    0.000000 |    0.148675 |   -21503.389517 | <-- min LBFGS
 | trial step |    1.000000 |    0.146045 |   -21503.396934 | <-- min LBFGS
 +------------+-------------+-------------+-----------------+ <-- min LBFGS
  

--------------------------------------------------------------------------------
 LBFGS: improving iteration         1 with line minimization (lambda= 38.166338)
--------------------------------------------------------------------------------
 
                           -------------------------------
                                      Unit Cell
                           -------------------------------
        Real Lattice(A)              Reciprocal Lattice(1/A)
   8.8702776  -0.0007373   0.0000000        0.7083075  -0.4089845   0.0000000
   4.4274586   7.6677771   0.0000000        0.0000681   0.8193879   0.0000000
   0.0000000   0.0000000   4.1499165        0.0000000   0.0000000   1.5140510
 
                       Lattice parameters(A)       Cell Angles
                    a =    8.870278          alpha =   90.000000
                    b =    8.854219          beta  =   90.000000
                    c =    4.149917          gamma =   60.002154
 
                Current cell volume =  282.271410 A**3
 
                           -------------------------------
                                     Cell Contents
                           -------------------------------
 
            xxxxxxxxxxxxxxxxxxxxxxxxxxxxxxxxxxxxxxxxxxxxxxxxxxxxxxxxxxxx
            x  Element    Atom        Fractional coordinates of atoms  x
            x            Number           u          v          w      x
            x----------------------------------------------------------x
            x  Na           1         0.766426   0.470499   0.000000   x
            x  Na           2         0.327144   0.476266   0.000000   x
            x  Na           3         0.333823   0.911135   0.000000   x
            x  Na           4         0.618575   0.326945   0.500000   x
            x  Na           5         0.625157   0.761857   0.500000   x
            x  Na           6         0.185864   0.767712   0.500000   x
            x  Zn           1         0.921219   0.060574   0.000000   x
            x  Zn           2         0.590715   0.063342   0.000000   x
            x  Zn           3         0.141277   0.286794   0.000000   x
            x  Zn           4         0.917975   0.731915   0.000000   x
            x  Zn           5         0.362018   0.174691   0.500000   x
            x  Zn           6         0.031005   0.177636   0.500000   x
            x  Zn           7         0.034165   0.506158   0.500000   x
            x  Zn           8         0.811206   0.951043   0.500000   x
            xxxxxxxxxxxxxxxxxxxxxxxxxxxxxxxxxxxxxxxxxxxxxxxxxxxxxxxxxxxx
 
 
------------------------------------------------------------------------ <-- SCF
SCF loop      Energy           Fermi           Energy gain       Timer   <-- SCF
                               energy          per atom          (sec)   <-- SCF
------------------------------------------------------------------------ <-- SCF
Initial  -2.14896282E+004  0.00000000E+000                       148.98  <-- SCF
      1  -2.15055950E+004  3.63157576E+000   1.14048023E+000     152.86  <-- SCF
      2  -2.15057732E+004  3.63156732E+000   1.27298988E-002     157.70  <-- SCF
      3  -2.15049245E+004  3.91130744E+000  -6.06207416E-002     162.19  <-- SCF
      4  -2.15035614E+004  3.80384043E+000  -9.73599996E-002     166.68  <-- SCF
      5  -2.15035835E+004  3.82170881E+000   1.57670215E-003     171.18  <-- SCF
      6  -2.15035835E+004  3.82106598E+000  -3.15692260E-006     175.78  <-- SCF
      7  -2.15035834E+004  3.82177232E+000  -7.68191304E-006     179.17  <-- SCF
      8  -2.15035834E+004  3.82186916E+000   1.22082266E-006     182.40  <-- SCF
------------------------------------------------------------------------ <-- SCF
 
Final energy, E             =  -21503.48748416     eV
Final free energy (E-TS)    =  -21503.58338893     eV
(energies not corrected for finite basis set)
 
NB est. 0K energy (E-0.5TS)      =  -21503.53543655     eV
 
 
 *********************************** Forces ***********************************
 *                                                                            *
 *                        Cartesian components (eV/A)                         *
 * -------------------------------------------------------------------------- *
 *                   x                    y                    z              *
 *                                                                            *
 * Na        1      0.12515             -0.05162              0.00000         *
 * Na        2     -0.10855             -0.08715              0.00000         *
 * Na        3     -0.01857              0.13696              0.00000         *
 * Na        4      0.02018             -0.13683              0.00000         *
 * Na        5      0.10602              0.08578              0.00000         *
 * Na        6     -0.12601              0.05035              0.00000         *
 * Zn        1     -0.07951             -0.03142              0.00000         *
 * Zn        2      0.06319             -0.05235              0.00000         *
 * Zn        3      0.00380             -0.00282              0.00000         *
 * Zn        4      0.01563              0.08956              0.00000         *
 * Zn        5     -0.06769              0.05418              0.00000         *
 * Zn        6      0.08175              0.03135              0.00000         *
 * Zn        7     -0.01296             -0.09187              0.00000         *
 * Zn        8     -0.00243              0.00589              0.00000         *
 *                                                                            *
 ******************************************************************************
 
 ***************** Stress Tensor *****************
 *                                               *
 *          Cartesian components (GPa)           *
 * --------------------------------------------- *
 *             x             y             z     *
 *                                               *
 *  x     -0.352935     -0.009793      0.000000  *
 *  y     -0.009793     -0.373761      0.000000  *
 *  z      0.000000      0.000000      0.631919  *
 *                                               *
 *  Pressure:    0.0316                          *
 *                                               *
 *************************************************
  
 +------------+-------------+-------------+-----------------+ <-- min LBFGS
 |    Step    |   lambda    |   F.delta'  |    enthalpy     | <-- min LBFGS
 +------------+-------------+-------------+-----------------+ <-- min LBFGS
 |  previous  |    0.000000 |    0.148675 |   -21503.389517 | <-- min LBFGS
 | trial step |    1.000000 |    0.146045 |   -21503.396934 | <-- min LBFGS
 |  line step |   38.166338 |    0.054025 |   -21503.583389 | <-- min LBFGS
 +------------+-------------+-------------+-----------------+ <-- min LBFGS
  
 LBFGS: finished iteration     1 with enthalpy= -2.15035834E+004 eV
  
 +-----------+-----------------+-----------------+------------+-----+ <-- LBFGS
 | Parameter |      value      |    tolerance    |    units   | OK? | <-- LBFGS
 +-----------+-----------------+-----------------+------------+-----+ <-- LBFGS
 |  dE/ion   |   1.384801E-002 |   2.000000E-005 |         eV | No  | <-- LBFGS
 |  |F|max   |   1.392016E-001 |   5.000000E-002 |       eV/A | No  | <-- LBFGS
 |  |dR|max  |   2.867889E-003 |   1.000000E-003 |          A | No  | <-- LBFGS
 |   Smax    |   6.319193E-001 |   1.000000E-001 |        GPa | No  | <-- LBFGS
 +-----------+-----------------+-----------------+------------+-----+ <-- LBFGS
  

================================================================================
 Starting LBFGS iteration          2 ...
================================================================================
  
 +------------+-------------+-------------+-----------------+ <-- min LBFGS
 |    Step    |   lambda    |   F.delta'  |    enthalpy     | <-- min LBFGS
 +------------+-------------+-------------+-----------------+ <-- min LBFGS
 |  previous  |    0.000000 |    0.054620 |   -21503.583389 | <-- min LBFGS
 +------------+-------------+-------------+-----------------+ <-- min LBFGS
  

--------------------------------------------------------------------------------
 LBFGS: starting iteration         2 with trial guess (lambda=  1.000000)
--------------------------------------------------------------------------------
 
                           -------------------------------
                                      Unit Cell
                           -------------------------------
        Real Lattice(A)              Reciprocal Lattice(1/A)
   9.0214004  -0.0010621   0.0000000        0.6964283  -0.4020910   0.0000000
   4.5026193   7.7986103   0.0000000        0.0000948   0.8056254   0.0000000
   0.0000000   0.0000000   4.0490513        0.0000000   0.0000000   1.5517673
 
                       Lattice parameters(A)       Cell Angles
                    a =    9.021400          alpha =   90.000000
                    b =    9.005104          beta  =   90.000000
                    c =    4.049051          gamma =   60.006252
 
                Current cell volume =  284.887880 A**3
 
                           -------------------------------
                                     Cell Contents
                           -------------------------------
 
            xxxxxxxxxxxxxxxxxxxxxxxxxxxxxxxxxxxxxxxxxxxxxxxxxxxxxxxxxxxx
            x  Element    Atom        Fractional coordinates of atoms  x
            x            Number           u          v          w      x
            x----------------------------------------------------------x
            x  Na           1         0.766536   0.470536   0.000000   x
            x  Na           2         0.327175   0.476098   0.000000   x
            x  Na           3         0.333660   0.911264   0.000000   x
            x  Na           4         0.618751   0.326807   0.500000   x
            x  Na           5         0.625116   0.762012   0.500000   x
            x  Na           6         0.185756   0.767666   0.500000   x
            x  Zn           1         0.921081   0.060508   0.000000   x
            x  Zn           2         0.590921   0.063186   0.000000   x
            x  Zn           3         0.141260   0.286817   0.000000   x
            x  Zn           4         0.917930   0.732135   0.000000   x
            x  Zn           5         0.361776   0.174858   0.500000   x
            x  Zn           6         0.031160   0.177694   0.500000   x
            x  Zn           7         0.034234   0.505929   0.500000   x
            x  Zn           8         0.811213   0.951056   0.500000   x
            xxxxxxxxxxxxxxxxxxxxxxxxxxxxxxxxxxxxxxxxxxxxxxxxxxxxxxxxxxxx
 
 
------------------------------------------------------------------------ <-- SCF
SCF loop      Energy           Fermi           Energy gain       Timer   <-- SCF
                               energy          per atom          (sec)   <-- SCF
------------------------------------------------------------------------ <-- SCF
Initial  -2.14987935E+004  0.00000000E+000                       217.30  <-- SCF
      1  -2.15041057E+004  3.74783290E+000   3.79437184E-001     221.21  <-- SCF
      2  -2.15041648E+004  3.74782608E+000   4.22171435E-003     226.01  <-- SCF
      3  -2.15039466E+004  3.84312798E+000  -1.55799318E-002     230.51  <-- SCF
      4  -2.15036022E+004  3.79891286E+000  -2.46023143E-002     234.86  <-- SCF
      5  -2.15036068E+004  3.80409726E+000   3.25130427E-004     239.50  <-- SCF
      6  -2.15036068E+004  3.80413379E+000   5.22783684E-006     243.40  <-- SCF
      7  -2.15036068E+004  3.80436253E+000  -3.47820641E-006     246.53  <-- SCF
------------------------------------------------------------------------ <-- SCF
 
Final energy, E             =  -21503.52094527     eV
Final free energy (E-TS)    =  -21503.60678202     eV
(energies not corrected for finite basis set)
 
NB est. 0K energy (E-0.5TS)      =  -21503.56386364     eV
 
 
 *********************************** Forces ***********************************
 *                                                                            *
 *                        Cartesian components (eV/A)                         *
 * -------------------------------------------------------------------------- *
 *                   x                    y                    z              *
 *                                                                            *
 * Na        1      0.20065             -0.09559              0.00000         *
 * Na        2     -0.18277             -0.13084              0.00000         *
 * Na        3     -0.01807              0.22372              0.00000         *
 * Na        4      0.01928             -0.22271              0.00000         *
 * Na        5      0.18108              0.12998              0.00000         *
 * Na        6     -0.20137              0.09420              0.00000         *
 * Zn        1     -0.07884             -0.02855              0.00000         *
 * Zn        2      0.05852             -0.05163              0.00000         *
 * Zn        3      0.00643             -0.00648              0.00000         *
 * Zn        4      0.01657              0.08878              0.00000         *
 * Zn        5     -0.06136              0.05286              0.00000         *
 * Zn        6      0.08024              0.02890              0.00000         *
 * Zn        7     -0.01514             -0.09052              0.00000         *
 * Zn        8     -0.00522              0.00788              0.00000         *
 *                                                                            *
 ******************************************************************************
 
 ***************** Stress Tensor *****************
 *                                               *
 *          Cartesian components (GPa)           *
 * --------------------------------------------- *
 *             x             y             z     *
 *                                               *
 *  x      0.308620     -0.017210      0.000000  *
 *  y     -0.017210      0.277995      0.000000  *
 *  z      0.000000      0.000000     -0.650324  *
 *                                               *
 *  Pressure:    0.0212                          *
 *                                               *
 *************************************************
  
 +------------+-------------+-------------+-----------------+ <-- min LBFGS
 |    Step    |   lambda    |   F.delta'  |    enthalpy     | <-- min LBFGS
 +------------+-------------+-------------+-----------------+ <-- min LBFGS
 |  previous  |    0.000000 |    0.054620 |   -21503.583389 | <-- min LBFGS
 | trial step |    1.000000 |   -0.047436 |   -21503.606782 | <-- min LBFGS
 +------------+-------------+-------------+-----------------+ <-- min LBFGS
  

--------------------------------------------------------------------------------
 LBFGS: improving iteration         2 with line minimization (lambda=  0.535197)
--------------------------------------------------------------------------------
 
                           -------------------------------
                                      Unit Cell
                           -------------------------------
        Real Lattice(A)              Reciprocal Lattice(1/A)
   8.9511581  -0.0009111   0.0000000        0.7018998  -0.4052660   0.0000000
   4.4676844   7.7377986   0.0000000        0.0000826   0.8119643   0.0000000
   0.0000000   0.0000000   4.0959337        0.0000000   0.0000000   1.5340056
 
                       Lattice parameters(A)       Cell Angles
                    a =    8.951158          alpha =   90.000000
                    b =    8.934972          beta  =   90.000000
                    c =    4.095934          gamma =   60.004365
 
                Current cell volume =  283.710295 A**3
 
                           -------------------------------
                                     Cell Contents
                           -------------------------------
 
            xxxxxxxxxxxxxxxxxxxxxxxxxxxxxxxxxxxxxxxxxxxxxxxxxxxxxxxxxxxx
            x  Element    Atom        Fractional coordinates of atoms  x
            x            Number           u          v          w      x
            x----------------------------------------------------------x
            x  Na           1         0.766485   0.470519   0.000000   x
            x  Na           2         0.327160   0.476176   0.000000   x
            x  Na           3         0.333736   0.911204   0.000000   x
            x  Na           4         0.618669   0.326871   0.500000   x
            x  Na           5         0.625135   0.761940   0.500000   x
            x  Na           6         0.185806   0.767687   0.500000   x
            x  Zn           1         0.921145   0.060539   0.000000   x
            x  Zn           2         0.590825   0.063259   0.000000   x
            x  Zn           3         0.141268   0.286806   0.000000   x
            x  Zn           4         0.917951   0.732033   0.000000   x
            x  Zn           5         0.361889   0.174781   0.500000   x
            x  Zn           6         0.031088   0.177667   0.500000   x
            x  Zn           7         0.034202   0.506036   0.500000   x
            x  Zn           8         0.811210   0.951050   0.500000   x
            xxxxxxxxxxxxxxxxxxxxxxxxxxxxxxxxxxxxxxxxxxxxxxxxxxxxxxxxxxxx
 
 
------------------------------------------------------------------------ <-- SCF
SCF loop      Energy           Fermi           Energy gain       Timer   <-- SCF
                               energy          per atom          (sec)   <-- SCF
------------------------------------------------------------------------ <-- SCF
Initial  -2.15025140E+004  0.00000000E+000                       281.25  <-- SCF
      1  -2.15036977E+004  3.84179185E+000   8.45534604E-002     285.18  <-- SCF
      2  -2.15037100E+004  3.84178958E+000   8.77542648E-004     289.94  <-- SCF
      3  -2.15036693E+004  3.80517551E+000  -2.90696179E-003     294.40  <-- SCF
      4  -2.15036078E+004  3.82446359E+000  -4.39127368E-003     298.75  <-- SCF
      5  -2.15036087E+004  3.82149262E+000   6.40613414E-005     303.27  <-- SCF
      6  -2.15036087E+004  3.82158099E+000   8.95114597E-007     306.44  <-- SCF
      7  -2.15036087E+004  3.82144438E+000  -7.22819411E-007     309.51  <-- SCF
------------------------------------------------------------------------ <-- SCF
 
Final energy, E             =  -21503.52249871     eV
Final free energy (E-TS)    =  -21503.60871953     eV
(energies not corrected for finite basis set)
 
NB est. 0K energy (E-0.5TS)      =  -21503.56560912     eV
 
 
 *********************************** Forces ***********************************
 *                                                                            *
 *                        Cartesian components (eV/A)                         *
 * -------------------------------------------------------------------------- *
 *                   x                    y                    z              *
 *                                                                            *
 * Na        1      0.16267             -0.08136              0.00000         *
 * Na        2     -0.15067             -0.10374              0.00000         *
 * Na        3     -0.01131              0.18231              0.00000         *
 * Na        4      0.01174             -0.18136              0.00000         *
 * Na        5      0.14993              0.10307              0.00000         *
 * Na        6     -0.16359              0.08010              0.00000         *
 * Zn        1     -0.09304             -0.03620              0.00000         *
 * Zn        2      0.07202             -0.06171              0.00000         *
 * Zn        3      0.00471             -0.00383              0.00000         *
 * Zn        4      0.01914              0.10439              0.00000         *
 * Zn        5     -0.07697              0.06286              0.00000         *
 * Zn        6      0.09507              0.03546              0.00000         *
 * Zn        7     -0.01644             -0.10731              0.00000         *
 * Zn        8     -0.00328              0.00730              0.00000         *
 *                                                                            *
 ******************************************************************************
 
 ***************** Stress Tensor *****************
 *                                               *
 *          Cartesian components (GPa)           *
 * --------------------------------------------- *
 *             x             y             z     *
 *                                               *
 *  x      0.015092     -0.013594      0.000000  *
 *  y     -0.013594     -0.010985      0.000000  *
 *  z      0.000000      0.000000      0.037662  *
 *                                               *
 *  Pressure:   -0.0139                          *
 *                                               *
 *************************************************
  
 +------------+-------------+-------------+-----------------+ <-- min LBFGS
 |    Step    |   lambda    |   F.delta'  |    enthalpy     | <-- min LBFGS
 +------------+-------------+-------------+-----------------+ <-- min LBFGS
 |  previous  |    0.000000 |    0.054620 |   -21503.583389 | <-- min LBFGS
 | trial step |    1.000000 |   -0.047436 |   -21503.606782 | <-- min LBFGS
 |  line step |    0.535197 |    0.003977 |   -21503.608720 | <-- min LBFGS
 +------------+-------------+-------------+-----------------+ <-- min LBFGS
  
 LBFGS: finished iteration     2 with enthalpy= -2.15036087E+004 eV
  
 +-----------+-----------------+-----------------+------------+-----+ <-- LBFGS
 | Parameter |      value      |    tolerance    |    units   | OK? | <-- LBFGS
 +-----------+-----------------+-----------------+------------+-----+ <-- LBFGS
 |  dE/ion   |   1.809329E-003 |   2.000000E-005 |         eV | No  | <-- LBFGS
 |  |F|max   |   1.829248E-001 |   5.000000E-002 |       eV/A | No  | <-- LBFGS
 |  |dR|max  |   1.027707E-003 |   1.000000E-003 |          A | No  | <-- LBFGS
 |   Smax    |   3.766233E-002 |   1.000000E-001 |        GPa | Yes | <-- LBFGS
 +-----------+-----------------+-----------------+------------+-----+ <-- LBFGS
  
 LBFGS: WARNING - Geometry optimization failed to converge after          2 steps

================================================================================
 LBFGS: Final Configuration:
================================================================================
 
                           -------------------------------
                                      Unit Cell
                           -------------------------------
        Real Lattice(A)              Reciprocal Lattice(1/A)
   8.9511581  -0.0009111   0.0000000        0.7018998  -0.4052660   0.0000000
   4.4676844   7.7377986   0.0000000        0.0000826   0.8119643   0.0000000
   0.0000000   0.0000000   4.0959337        0.0000000   0.0000000   1.5340056
 
                       Lattice parameters(A)       Cell Angles
                    a =    8.951158          alpha =   90.000000
                    b =    8.934972          beta  =   90.000000
                    c =    4.095934          gamma =   60.004365
 
                Current cell volume =  283.710295 A**3
 
                           -------------------------------
                                     Cell Contents
                           -------------------------------
 
            xxxxxxxxxxxxxxxxxxxxxxxxxxxxxxxxxxxxxxxxxxxxxxxxxxxxxxxxxxxx
            x  Element    Atom        Fractional coordinates of atoms  x
            x            Number           u          v          w      x
            x----------------------------------------------------------x
            x  Na           1         0.766485   0.470519   0.000000   x
            x  Na           2         0.327160   0.476176   0.000000   x
            x  Na           3         0.333736   0.911204   0.000000   x
            x  Na           4         0.618669   0.326871   0.500000   x
            x  Na           5         0.625135   0.761940   0.500000   x
            x  Na           6         0.185806   0.767687   0.500000   x
            x  Zn           1         0.921145   0.060539   0.000000   x
            x  Zn           2         0.590825   0.063259   0.000000   x
            x  Zn           3         0.141268   0.286806   0.000000   x
            x  Zn           4         0.917951   0.732033   0.000000   x
            x  Zn           5         0.361889   0.174781   0.500000   x
            x  Zn           6         0.031088   0.177667   0.500000   x
            x  Zn           7         0.034202   0.506036   0.500000   x
            x  Zn           8         0.811210   0.951050   0.500000   x
            xxxxxxxxxxxxxxxxxxxxxxxxxxxxxxxxxxxxxxxxxxxxxxxxxxxxxxxxxxxx
 
 
 LBFGS: Final Enthalpy     = -2.15036087E+004 eV
 LBFGS: Final <frequency>  =    1628.04003 cm-1
 LBFGS: Final bulk modulus =     274.36530 GPa
  
  **********************************************************
  *** There were at least     2 warnings during this run ***
  *** => please check the whole of this file carefully!  ***
  **********************************************************
 
 ***************************** Symmetrised Forces *****************************
 *                                                                            *
 *                        Cartesian components (eV/A)                         *
 * -------------------------------------------------------------------------- *
 *                   x                    y                    z              *
 *                                                                            *
 * Na        1      0.16267             -0.08136              0.00000         *
 * Na        2     -0.15067             -0.10374              0.00000         *
 * Na        3     -0.01131              0.18231              0.00000         *
 * Na        4      0.01174             -0.18136              0.00000         *
 * Na        5      0.14993              0.10307              0.00000         *
 * Na        6     -0.16359              0.08010              0.00000         *
 * Zn        1     -0.09304             -0.03620              0.00000         *
 * Zn        2      0.07202             -0.06171              0.00000         *
 * Zn        3      0.00471             -0.00383              0.00000         *
 * Zn        4      0.01914              0.10439              0.00000         *
 * Zn        5     -0.07697              0.06286              0.00000         *
 * Zn        6      0.09507              0.03546              0.00000         *
 * Zn        7     -0.01644             -0.10731              0.00000         *
 * Zn        8     -0.00328              0.00730              0.00000         *
 *                                                                            *
 ******************************************************************************
 
 *********** Symmetrised Stress Tensor ***********
 *                                               *
 *          Cartesian components (GPa)           *
 * --------------------------------------------- *
 *             x             y             z     *
 *                                               *
 *  x      0.015092     -0.013594      0.000000  *
 *  y     -0.013594     -0.010985      0.000000  *
 *  z      0.000000      0.000000      0.037662  *
 *                                               *
 *  Pressure:   -0.0139                          *
 *                                               *
 *************************************************
 
 Pseudo atomic calculation performed for Na 2s2 2p6 3s1
 
 Converged in 21 iterations to a total energy of -1302.6336 eV
 
 
 Pseudo atomic calculation performed for Zn 3d10 4s2
 
 Converged in 39 iterations to a total energy of -1708.2632 eV
 
Charge spilling parameter for spin component 1 = 0.02%
 
     Atomic Populations (Mulliken)
     -----------------------------
Species   Ion     s      p      d      f     Total  Charge (e)
==============================================================
  Na       1     2.18   6.40   0.00   0.00   8.58     0.42
  Na       2     2.18   6.40   0.00   0.00   8.58     0.42
  Na       3     2.18   6.40   0.00   0.00   8.58     0.42
  Na       4     2.18   6.40   0.00   0.00   8.58     0.42
  Na       5     2.18   6.40   0.00   0.00   8.58     0.42
  Na       6     2.18   6.40   0.00   0.00   8.58     0.42
  Zn       1     0.78   1.51   9.96   0.00  12.25    -0.25
  Zn       2     0.78   1.51   9.96   0.00  12.25    -0.25
  Zn       3     1.02   1.53   9.96   0.00  12.51    -0.51
  Zn       4     0.78   1.51   9.96   0.00  12.25    -0.25
  Zn       5     0.78   1.51   9.96   0.00  12.25    -0.25
  Zn       6     0.78   1.51   9.96   0.00  12.25    -0.25
  Zn       7     0.78   1.51   9.96   0.00  12.25    -0.25
  Zn       8     1.02   1.53   9.96   0.00  12.51    -0.51
==============================================================
 
            Bond              Population      Length (A)
============================================================
         Zn 4 -- Zn 8              0.91        2.65840
         Zn 3 -- Zn 7              0.90        2.65943
         Zn 3 -- Zn 6              0.90        2.66071
         Zn 1 -- Zn 8              0.90        2.66122
         Zn 2 -- Zn 8              0.88        2.66709
         Zn 3 -- Zn 5              0.88        2.66825
         Zn 4 -- Zn 7              1.42        2.69324
         Zn 1 -- Zn 6              1.42        2.69957
         Zn 2 -- Zn 5              1.40        2.71013
         Na 6 -- Zn 8             -0.42        2.90422
         Na 1 -- Zn 3             -0.42        2.90563
         Na 5 -- Zn 8             -0.43        2.90572
         Na 2 -- Zn 3             -0.43        2.90633
         Na 3 -- Zn 3             -0.43        2.90685
         Na 4 -- Zn 8             -0.43        2.90854
         Zn 2 -- Zn 4              0.26        2.94414
         Zn 1 -- Zn 2              0.26        2.94467
         Zn 5 -- Zn 7              0.26        2.94675
         Zn 6 -- Zn 7              0.25        2.94800
         Zn 5 -- Zn 6              0.26        2.94824
         Zn 1 -- Zn 4              0.25        2.94959
============================================================
 
Initialisation time =      1.62 s
Calculation time    =    344.14 s
Finalisation time   =      0.31 s
Total time          =    346.07 s
Peak Memory Use     = 711896 kB
  
Overall parallel efficiency rating: Excellent (98%)                             
  
Data was distributed by:-
k-point (15-way); efficiency rating: Excellent (99%)                            
  
Parallel notes:
1) Calculation only took 345.8 s, so efficiency estimates may be inaccurate.    
 +-------------------------------------------------+
 |                                                 |
 |      CCC   AA    SSS  TTTTT  EEEEE  PPPP        |
 |     C     A  A  S       T    E      P   P       |
 |     C     AAAA   SS     T    EEE    PPPP        |
 |     C     A  A     S    T    E      P           |
 |      CCC  A  A  SSS     T    EEEEE  P           |
 |                                                 |
 +-------------------------------------------------+
 |                                                 |
 | Welcome to Academic Release CASTEP version 16.11|          
 | Ab Initio Total Energy Program                  |
 |                                                 |
 | Authors:                                        |
 | M. Segall, M. Probert, C. Pickard, P. Hasnip,   |
 | S. Clark, K. Refson, J. R. Yates, M. Payne      |
 |                                                 |
 | Contributors:                                   |
 | P. Lindan, P. Haynes, J. White, V. Milman,      |
 | N. Govind, M. Gibson, P. Tulip, V. Cocula,      |
 | B. Montanari, D. Quigley, M. Glover,            |
 | L. Bernasconi, A. Perlov, M. Plummer,           |
 | E. McNellis, J. Meyer, J. Gale, D. Jochym       |
 | J. Aarons, B. Walker, R. Gillen, D. Jones       |
 | T. Green, I. J. Bush, C. J. Armstrong,          |
 | E. J. Higgins, E. L. Brown, M. S. McFly         |
 |                                                 |
 | Copyright (c) 2000 - 2015                       |
 |                                                 |
 |     Distributed under the terms of an           |
 |     Agreement between the United Kingdom        |
 |     Car-Parrinello (UKCP) Consortium,           |
 |     Daresbury Laboratory and Accelrys, Inc.     |
 |                                                 |
 | Please cite                                     |
 |                                                 |
 |     "First principles methods using CASTEP"     |
 |                                                 |
 |         Zeitschrift fuer Kristallographie       |
 |           220(5-6) pp. 567-570 (2005)           |
 |                                                 |
 | S. J. Clark, M. D. Segall, C. J. Pickard,       |
 | P. J. Hasnip, M. J. Probert, K. Refson,         |
 | M. C. Payne                                     |
 |                                                 |
 |       in all publications arising from          |
 |              your use of CASTEP                 |
 |                                                 |
 +-------------------------------------------------+
 
 
 Compiled for linux_x86_64_ifort12 on Mon, 22 Aug 2016 13:11:39 +0100
 from code version 
 203e84763863+ Castep161_branch Fri, 04 Mar 2016 19:21:07 +0000
 Compiler: Intel Fortran 12.1; Optimisation: fast
 MATHLIBS: Intel MKL(10.3.10) (LAPACK version 3.4.0)
 FFT Lib : mkl
 Fundamental constants values: CODATA 2010
 
 Run started: Tue, 13 Dec 2016 00:08:56 +0000
 
 Pseudo atomic calculation performed for Na 2s2 2p6 3s1
 
 Converged in 21 iterations to a total energy of -1302.6336 eV
 
 
 Pseudo atomic calculation performed for Zn 3d10 4s2
 
 Converged in 39 iterations to a total energy of -1708.2632 eV
 
 Calculation parallelised over 15 processes.
 Data is distributed by k-point(15-way)

 ************************************ Title ************************************
 

 ***************************** General Parameters ******************************
  
 output verbosity                               : normal  (1)
 write checkpoint data to                       : Na3Zn4-OQMD_759599.check
 type of calculation                            : geometry optimization
 stress calculation                             : on
 density difference calculation                 : off
 electron localisation func (ELF) calculation   : off
 Hirshfeld analysis                             : off
 unlimited duration calculation
 timing information                             : on
 memory usage estimate                          : on
 write final potential to formatted file        : off
 write final density to formatted file          : off
 write BibTeX reference list                    : off
 write OTFG pseudopotential files               : on
 checkpoint writing                             : off
  
 output         length unit                     : A
 output           mass unit                     : amu
 output           time unit                     : ps
 output         charge unit                     : e
 output           spin unit                     : hbar/2
 output         energy unit                     : eV
 output          force unit                     : eV/A
 output       velocity unit                     : A/ps
 output       pressure unit                     : GPa
 output     inv_length unit                     : 1/A
 output      frequency unit                     : cm-1
 output force constant unit                     : eV/A**2
 output         volume unit                     : A**3
 output   IR intensity unit                     : (D/A)**2/amu
 output         dipole unit                     : D
 output         efield unit                     : eV/A/e
 output        entropy unit                     : J/mol/K
  
 wavefunctions paging                           : none
 random number generator seed                   : randomised (856512)
 data distribution                              : optimal for this architecture
 optimization strategy                          : maximize speed(+++)

 *********************** Exchange-Correlation Parameters ***********************
  
 using functional                               : Perdew Burke Ernzerhof
 relativistic treatment                         : Koelling-Harmon
 DFT+D: Semi-empirical dispersion correction    : off

 ************************* Pseudopotential Parameters **************************
  
 pseudopotential representation                 : reciprocal space
 <beta|phi> representation                      : reciprocal space
 spin-orbit coupling                            : off

 **************************** Basis Set Parameters *****************************
  
 plane wave basis set cut-off                   :   500.0000   eV
 size of standard grid                          :     1.7500
 size of   fine   gmax                          :    20.0476   1/A
 finite basis set correction                    : none

 **************************** Electronic Parameters ****************************
  
 number of  electrons                           :  150.0    
 net charge of system                           :  0.000    
 treating system as non-spin-polarized
 number of bands                                :        105

 ********************* Electronic Minimization Parameters **********************
  
 Method: Treating system as metallic with density mixing treatment of electrons,
         and number of  SD  steps               :          1
         and number of  CG  steps               :          4
  
 total energy / atom convergence tol.           : 0.1000E-04   eV
 eigen-energy convergence tolerance             : 0.1000E-05   eV
 max force / atom convergence tol.              : ignored
 convergence tolerance window                   :          3   cycles
 max. number of SCF cycles                      :        100
 number of fixed-spin iterations                :         10
 smearing scheme                                : Gaussian
 smearing width                                 : 0.2000       eV
 Fermi energy convergence tolerance             : 0.2721E-13   eV
 periodic dipole correction                     : NONE

 ************************** Density Mixing Parameters **************************
  
 density-mixing scheme                          : Broyden
 max. length of mixing history                  :         20
 charge density mixing amplitude                : 0.8000    
 cut-off energy for mixing                      :  500.0       eV

 *********************** Population Analysis Parameters ************************
  
 Population analysis with cutoff                :  3.000       A

 ********************** Geometry Optimization Parameters ***********************
  
 optimization method                            : LBFGS
 max. no. of LBFGS updates                      : unbounded
 variable cell method                           : fixed basis quality
 max. number of steps                           :          2
 estimated bulk modulus                         :  500.0       GPa
 estimated <frequency>                          :  1668.       cm-1
 geom line minimiser                            : on
 with line minimiser tolerance                  :     0.4000
 total energy convergence tolerance             : 0.2000E-04   eV/atom
        max ionic |force| tolerance             : 0.5000E-01   eV/A
 max ionic |displacement| tolerance             : 0.1000E-02   A
   max |stress component| tolerance             : 0.1000       GPa
 convergence tolerance window                   :          2   steps
 backup results every                           : 2147483647   steps

 *******************************************************************************
  
 
                           -------------------------------
                                      Unit Cell
                           -------------------------------
        Real Lattice(A)                      Reciprocal Lattice(1/A)
   8.9511581  -0.0009111   0.0000000        0.7018998  -0.4052660   0.0000000
   4.4676844   7.7377986   0.0000000        0.0000826   0.8119643   0.0000000
   0.0000000   0.0000000   4.0959337        0.0000000   0.0000000   1.5340056
 
                       Lattice parameters(A)       Cell Angles
                    a =    8.951158          alpha =   90.000000
                    b =    8.934972          beta  =   90.000000
                    c =    4.095934          gamma =   60.004364
 
                       Current cell volume =  283.710292       A**3
 
                           -------------------------------
                                     Cell Contents
                           -------------------------------
                         Total number of ions in cell =   14
                      Total number of species in cell =    2
                        Max number of any one species =    8
 
            xxxxxxxxxxxxxxxxxxxxxxxxxxxxxxxxxxxxxxxxxxxxxxxxxxxxxxxxxxxx
            x  Element    Atom        Fractional coordinates of atoms  x
            x            Number           u          v          w      x
            x----------------------------------------------------------x
            x  Na           1         0.766485   0.470519   0.000000   x 
            x  Na           2         0.327160   0.476176   0.000000   x 
            x  Na           3         0.333736   0.911204   0.000000   x 
            x  Na           4         0.618669   0.326871   0.500000   x 
            x  Na           5         0.625135   0.761940   0.500000   x 
            x  Na           6         0.185806   0.767687   0.500000   x 
            x  Zn           1         0.921145   0.060539   0.000000   x 
            x  Zn           2         0.590825   0.063259   0.000000   x 
            x  Zn           3         0.141268   0.286806   0.000000   x 
            x  Zn           4         0.917951   0.732033   0.000000   x 
            x  Zn           5         0.361889   0.174781   0.500000   x 
            x  Zn           6         0.031088   0.177667   0.500000   x 
            x  Zn           7         0.034202   0.506036   0.500000   x 
            x  Zn           8         0.811210   0.951050   0.500000   x 
            xxxxxxxxxxxxxxxxxxxxxxxxxxxxxxxxxxxxxxxxxxxxxxxxxxxxxxxxxxxx
 
 
                         No user defined ionic velocities
 
                           -------------------------------
                                   Details of Species
                           -------------------------------
 
                               Mass of species in AMU
                                    Na   22.9897700
                                    Zn   65.3900000
 
                          Electric Quadrupole Moment (Barn)
                                    Na    0.1040000 Isotope 23
                                    Zn    0.1500000 Isotope 67
 
                          Files used for pseudopotentials:
                                    Na Na_00PBE.usp
                                    Zn Zn_00PBE.usp
 
                           -------------------------------
                              k-Points For BZ Sampling
                           -------------------------------
                       MP grid size for SCF calculation is  3  3  5
                            with an offset of   0.000  0.000  0.000
                       Number of kpoints used =            15
 
                           -------------------------------
                               Symmetry and Constraints
                           -------------------------------
 
                      Maximum deviation from symmetry = 0.188002E-14     ANG
 
                      Number of symmetry operations   =           2
                      Number of ionic constraints     =           3
                      Point group of crystal =     3: Cs, m, m
                      Space group of crystal =     6: Pm, P -2y
 
             Set iprint > 1 for details on symmetry rotations/translations
 
                         Centre of mass is constrained
             Set iprint > 1 for details of linear ionic constraints
 
                         Number of cell constraints= 2
                         Cell constraints are:  1 2 3 0 0 6
 
                         External pressure/stress (GPa)
                          0.00000   0.00000   0.00000
                                    0.00000   0.00000
                                              0.00000
  
+---------------- MEMORY AND SCRATCH DISK ESTIMATES PER PROCESS --------------+
|                                                     Memory          Disk    |
| Baseline code, static data and system overhead      333.0 MB         0.0 MB |
| BLAS internal memory storage                          0.0 MB         0.0 MB |
| Model and support data                              220.4 MB         0.0 MB |
| Electronic energy minimisation requirements          50.7 MB         0.0 MB |
| Force calculation requirements                       11.1 MB         0.0 MB |
| Stress calculation requirements                      14.1 MB         0.0 MB |
|                                               ----------------------------- |
| Approx. total storage required per process          604.1 MB         0.0 MB |
|                                                                             |
| Requirements will fluctuate during execution and may exceed these estimates |
+-----------------------------------------------------------------------------+
------------------------------------------------------------------------ <-- SCF
SCF loop      Energy           Fermi           Energy gain       Timer   <-- SCF
                               energy          per atom          (sec)   <-- SCF
------------------------------------------------------------------------ <-- SCF
Initial  -2.10580881E+004  0.00000000E+000                         2.77  <-- SCF
      1  -2.09714768E+004  4.15429336E+000  -6.18651893E+000       7.72  <-- SCF
      2  -2.14923789E+004  4.08391514E+000   3.72072913E+001      10.94  <-- SCF
      3  -2.15041529E+004  3.96649346E+000   8.41002658E-001      14.36  <-- SCF
      4  -2.15043610E+004  3.78043839E+000   1.48587590E-002      19.42  <-- SCF
      5  -2.15035659E+004  3.83479555E+000  -5.67928782E-002      24.25  <-- SCF
      6  -2.15036082E+004  3.82627294E+000   3.02718009E-003      29.82  <-- SCF
      7  -2.15036087E+004  3.82211928E+000   3.43188974E-005      34.34  <-- SCF
      8  -2.15036088E+004  3.82162014E+000   1.61872088E-006      37.92  <-- SCF
      9  -2.15036087E+004  3.82149064E+000  -2.48127890E-006      41.18  <-- SCF
------------------------------------------------------------------------ <-- SCF
 
Final energy, E             =  -21503.52252308     eV
Final free energy (E-TS)    =  -21503.60871595     eV
(energies not corrected for finite basis set)
 
NB est. 0K energy (E-0.5TS)      =  -21503.56561951     eV
 

WARNING - doing cell minimisation without finite basis correction:
        => now searching for a stationary and not minimum energy
 
+---------------- MEMORY AND SCRATCH DISK ESTIMATES PER PROCESS --------------+
|                                                     Memory          Disk    |
| Model and support data                              229.2 MB         0.0 MB |
| Electronic energy minimisation requirements          50.7 MB         0.0 MB |
| Geometry minimisation requirements                   63.4 MB         0.0 MB |
|                                               ----------------------------- |
| Approx. total storage required per process          343.3 MB         0.0 MB |
|                                                                             |
| Requirements will fluctuate during execution and may exceed these estimates |
+-----------------------------------------------------------------------------+
 
 
 *********************************** Forces ***********************************
 *                                                                            *
 *                        Cartesian components (eV/A)                         *
 * -------------------------------------------------------------------------- *
 *                   x                    y                    z              *
 *                                                                            *
 * Na        1      0.17076             -0.08272              0.00000         *
 * Na        2     -0.15675             -0.11099              0.00000         *
 * Na        3     -0.01404              0.19093              0.00000         *
 * Na        4      0.01474             -0.19000              0.00000         *
 * Na        5      0.15506              0.11010              0.00000         *
 * Na        6     -0.17198              0.08141              0.00000         *
 * Zn        1     -0.08837             -0.03506              0.00000         *
 * Zn        2      0.06885             -0.05818              0.00000         *
 * Zn        3      0.00486             -0.00415              0.00000         *
 * Zn        4      0.01737              0.09989              0.00000         *
 * Zn        5     -0.07356              0.05969              0.00000         *
 * Zn        6      0.09115              0.03389              0.00000         *
 * Zn        7     -0.01474             -0.10206              0.00000         *
 * Zn        8     -0.00337              0.00725              0.00000         *
 *                                                                            *
 ******************************************************************************
 
 ***************** Stress Tensor *****************
 *                                               *
 *          Cartesian components (GPa)           *
 * --------------------------------------------- *
 *             x             y             z     *
 *                                               *
 *  x     -0.007454     -0.013646      0.000000  *
 *  y     -0.013646     -0.033686      0.000000  *
 *  z      0.000000      0.000000      0.040302  *
 *                                               *
 *  Pressure:    0.0003                          *
 *                                               *
 *************************************************
 LBFGS: finished iteration     0 with enthalpy= -2.15036087E+004 eV
  
 +-----------+-----------------+-----------------+------------+-----+ <-- LBFGS
 | Parameter |      value      |    tolerance    |    units   | OK? | <-- LBFGS
 +-----------+-----------------+-----------------+------------+-----+ <-- LBFGS
 |  dE/ion   |   0.000000E+000 |   2.000000E-005 |         eV | No  | <-- LBFGS
 |  |F|max   |   1.920629E-001 |   5.000000E-002 |       eV/A | No  | <-- LBFGS
 |  |dR|max  |   0.000000E+000 |   1.000000E-003 |          A | No  | <-- LBFGS
 |   Smax    |   4.030203E-002 |   1.000000E-001 |        GPa | Yes | <-- LBFGS
 +-----------+-----------------+-----------------+------------+-----+ <-- LBFGS
  

================================================================================
 Starting LBFGS iteration          1 ...
================================================================================
  
 +------------+-------------+-------------+-----------------+ <-- min LBFGS
 |    Step    |   lambda    |   F.delta'  |    enthalpy     | <-- min LBFGS
 +------------+-------------+-------------+-----------------+ <-- min LBFGS
 |  previous  |    0.000000 |    0.145109 |   -21503.608716 | <-- min LBFGS
 +------------+-------------+-------------+-----------------+ <-- min LBFGS
  

[...]

 *******************************************************************************
  
 
                           -------------------------------
                                      Unit Cell
                           -------------------------------
        Real Lattice(A)                      Reciprocal Lattice(1/A)
   9.0397727   0.0081202   0.0000000        0.6954204  -0.4011347   0.0000000
   4.5197279   7.8355509   0.0000000       -0.0007207   0.8022975   0.0000000
   0.0000000   0.0000000   4.0686822        0.0000000   0.0000000   1.5442802
 
                       Lattice parameters(A)       Cell Angles
                    a =    9.039776          alpha =   90.000000
                    b =    9.045651          beta  =   90.000000
                    c =    4.068682          gamma =   59.971185
 
                       Current cell volume =  288.041941       A**3
 
                           -------------------------------
                                     Cell Contents
                           -------------------------------
                         Total number of ions in cell =   14
                      Total number of species in cell =    2
                        Max number of any one species =    8
 
            xxxxxxxxxxxxxxxxxxxxxxxxxxxxxxxxxxxxxxxxxxxxxxxxxxxxxxxxxxxx
            x  Element    Atom        Fractional coordinates of atoms  x
            x            Number           u          v          w      x
            x----------------------------------------------------------x
            x  Na           1         0.776467   0.466319   0.000000   x 
            x  Na           2         0.323033   0.470149   0.000000   x 
            x  Na           3         0.327816   0.921403   0.000000   x 
            x  Na           4         0.624588   0.316701   0.500000   x 
            x  Na           5         0.629235   0.767934   0.500000   x 
            x  Na           6         0.175842   0.771806   0.500000   x 
            x  Zn           1         0.918250   0.059215   0.000000   x 
            x  Zn           2         0.594696   0.060489   0.000000   x 
            x  Zn           3         0.141698   0.286500   0.000000   x 
            x  Zn           4         0.916575   0.736574   0.000000   x 
            x  Zn           5         0.357761   0.177622   0.500000   x 
            x  Zn           6         0.034128   0.178928   0.500000   x 
            x  Zn           7         0.035742   0.501404   0.500000   x 
            x  Zn           8         0.810738   0.951522   0.500000   x 
            xxxxxxxxxxxxxxxxxxxxxxxxxxxxxxxxxxxxxxxxxxxxxxxxxxxxxxxxxxxx
 
 
                         No user defined ionic velocities
 
                           -------------------------------
                                   Details of Species
                           -------------------------------
 
                               Mass of species in AMU
                                    Na   22.9897700
                                    Zn   65.3900000
 
                          Electric Quadrupole Moment (Barn)
                                    Na    0.1040000 Isotope 23
                                    Zn    0.1500000 Isotope 67
 
                          Files used for pseudopotentials:
                                    Na Na_00PBE.usp
                                    Zn Zn_00PBE.usp
 
                           -------------------------------
                              k-Points For BZ Sampling
                           -------------------------------
                       MP grid size for SCF calculation is  3  3  5
                            with an offset of   0.000  0.000  0.000
                       Number of kpoints used =            15
 
                           -------------------------------
                               Symmetry and Constraints
                           -------------------------------
 
                      Maximum deviation from symmetry =  0.00000         ANG
 
                      Number of symmetry operations   =           2
                      Number of ionic constraints     =           3
                      Point group of crystal =     3: Cs, m, m
                      Space group of crystal =     6: Pm, P -2y
 
             Set iprint > 1 for details on symmetry rotations/translations
 
                         Centre of mass is constrained
             Set iprint > 1 for details of linear ionic constraints
 
                         Number of cell constraints= 2
                         Cell constraints are:  1 2 3 0 0 6
 
                         External pressure/stress (GPa)
                          0.00000   0.00000   0.00000
                                    0.00000   0.00000
                                              0.00000
  
+---------------- MEMORY AND SCRATCH DISK ESTIMATES PER PROCESS --------------+
|                                                     Memory          Disk    |
| Baseline code, static data and system overhead      333.0 MB         0.0 MB |
| BLAS internal memory storage                          0.0 MB         0.0 MB |
| Model and support data                              220.9 MB         0.0 MB |
| Electronic energy minimisation requirements          51.3 MB         0.0 MB |
| Force calculation requirements                       11.1 MB         0.0 MB |
| Stress calculation requirements                      14.1 MB         0.0 MB |
|                                               ----------------------------- |
| Approx. total storage required per process          605.2 MB         0.0 MB |
|                                                                             |
| Requirements will fluctuate during execution and may exceed these estimates |
+-----------------------------------------------------------------------------+
------------------------------------------------------------------------ <-- SCF
SCF loop      Energy           Fermi           Energy gain       Timer   <-- SCF
                               energy          per atom          (sec)   <-- SCF
------------------------------------------------------------------------ <-- SCF
Initial  -2.10694728E+004  0.00000000E+000                         2.77  <-- SCF
      1  -2.09729346E+004  4.08530795E+000  -6.89558207E+000       7.80  <-- SCF
      2  -2.14924504E+004  3.97629303E+000   3.71082703E+001      11.09  <-- SCF
      3  -2.15042310E+004  3.88050106E+000   8.41474870E-001      14.52  <-- SCF
      4  -2.15044303E+004  3.69984960E+000   1.42335825E-002      19.72  <-- SCF
      5  -2.15036534E+004  3.75195670E+000  -5.54913219E-002      24.62  <-- SCF
      6  -2.15036926E+004  3.74361054E+000   2.79914555E-003      30.15  <-- SCF
      7  -2.15036931E+004  3.73933069E+000   3.59675491E-005      34.75  <-- SCF
      8  -2.15036931E+004  3.73877589E+000   4.18134847E-007      38.75  <-- SCF
      9  -2.15036930E+004  3.73859222E+000  -5.93191271E-006      41.91  <-- SCF
------------------------------------------------------------------------ <-- SCF
 
Final energy, E             =  -21503.60907589     eV
Final free energy (E-TS)    =  -21503.69304661     eV
(energies not corrected for finite basis set)
 
NB est. 0K energy (E-0.5TS)      =  -21503.65106125     eV
 

WARNING - doing cell minimisation without finite basis correction:
        => now searching for a stationary and not minimum energy
 
+---------------- MEMORY AND SCRATCH DISK ESTIMATES PER PROCESS --------------+
|                                                     Memory          Disk    |
| Model and support data                              229.7 MB         0.0 MB |
| Electronic energy minimisation requirements          51.3 MB         0.0 MB |
| Geometry minimisation requirements                   64.2 MB         0.0 MB |
|                                               ----------------------------- |
| Approx. total storage required per process          345.1 MB         0.0 MB |
|                                                                             |
| Requirements will fluctuate during execution and may exceed these estimates |
+-----------------------------------------------------------------------------+
 
 
 *********************************** Forces ***********************************
 *                                                                            *
 *                        Cartesian components (eV/A)                         *
 * -------------------------------------------------------------------------- *
 *                   x                    y                    z              *
 *                                                                            *
 * Na        1      0.03376             -0.00251              0.00000         *
 * Na        2     -0.01908             -0.02581              0.00000         *
 * Na        3     -0.01582              0.03183              0.00000         *
 * Na        4      0.01461             -0.03276              0.00000         *
 * Na        5      0.02149              0.02663              0.00000         *
 * Na        6     -0.03190              0.00184              0.00000         *
 * Zn        1      0.02701              0.02959              0.00000         *
 * Zn        2     -0.04111              0.01135              0.00000         *
 * Zn        3      0.00219             -0.00344              0.00000         *
 * Zn        4      0.01039             -0.03731              0.00000         *
 * Zn        5      0.04001             -0.01215              0.00000         *
 * Zn        6     -0.02745             -0.02948              0.00000         *
 * Zn        7     -0.01071              0.03887              0.00000         *
 * Zn        8     -0.00340              0.00337              0.00000         *
 *                                                                            *
 ******************************************************************************
 
 ***************** Stress Tensor *****************
 *                                               *
 *          Cartesian components (GPa)           *
 * --------------------------------------------- *
 *             x             y             z     *
 *                                               *
 *  x     -0.081015      0.005088      0.000000  *
 *  y      0.005088     -0.074776      0.000000  *
 *  z      0.000000      0.000000     -0.073248  *
 *                                               *
 *  Pressure:    0.0763                          *
 *                                               *
 *************************************************
 LBFGS: finished iteration     0 with enthalpy= -2.15036930E+004 eV
  
 +-----------+-----------------+-----------------+------------+-----+ <-- LBFGS
 | Parameter |      value      |    tolerance    |    units   | OK? | <-- LBFGS
 +-----------+-----------------+-----------------+------------+-----+ <-- LBFGS
 |  dE/ion   |   0.000000E+000 |   2.000000E-005 |         eV | Yes | <-- LBFGS
 |  |F|max   |   4.264573E-002 |   5.000000E-002 |       eV/A | Yes | <-- LBFGS
 |  |dR|max  |   0.000000E+000 |   1.000000E-003 |          A | Yes | <-- LBFGS
 |   Smax    |   8.101498E-002 |   1.000000E-001 |        GPa | Yes | <-- LBFGS
 +-----------+-----------------+-----------------+------------+-----+ <-- LBFGS
  
 LBFGS: Geometry optimization completed successfully.

================================================================================
 LBFGS: Final Configuration:
================================================================================
 
                           -------------------------------
                                      Unit Cell
                           -------------------------------
        Real Lattice(A)              Reciprocal Lattice(1/A)
   9.0397727   0.0081202   0.0000000        0.6954204  -0.4011347   0.0000000
   4.5197279   7.8355509   0.0000000       -0.0007207   0.8022975   0.0000000
   0.0000000   0.0000000   4.0686822        0.0000000   0.0000000   1.5442802
 
                       Lattice parameters(A)       Cell Angles
                    a =    9.039776          alpha =   90.000000
                    b =    9.045651          beta  =   90.000000
                    c =    4.068682          gamma =   59.971185
 
                Current cell volume =  288.041941 A**3
 
                           -------------------------------
                                     Cell Contents
                           -------------------------------
 
            xxxxxxxxxxxxxxxxxxxxxxxxxxxxxxxxxxxxxxxxxxxxxxxxxxxxxxxxxxxx
            x  Element    Atom        Fractional coordinates of atoms  x
            x            Number           u          v          w      x
            x----------------------------------------------------------x
            x  Na           1         0.776467   0.466319   0.000000   x
            x  Na           2         0.323033   0.470149   0.000000   x
            x  Na           3         0.327816   0.921403   0.000000   x
            x  Na           4         0.624588   0.316701   0.500000   x
            x  Na           5         0.629235   0.767934   0.500000   x
            x  Na           6         0.175842   0.771806   0.500000   x
            x  Zn           1         0.918250   0.059215   0.000000   x
            x  Zn           2         0.594696   0.060489   0.000000   x
            x  Zn           3         0.141698   0.286500   0.000000   x
            x  Zn           4         0.916575   0.736574   0.000000   x
            x  Zn           5         0.357761   0.177622   0.500000   x
            x  Zn           6         0.034128   0.178928   0.500000   x
            x  Zn           7         0.035742   0.501404   0.500000   x
            x  Zn           8         0.810738   0.951522   0.500000   x
            xxxxxxxxxxxxxxxxxxxxxxxxxxxxxxxxxxxxxxxxxxxxxxxxxxxxxxxxxxxx
 
 
 LBFGS: Final Enthalpy     = -2.15036930E+004 eV
 LBFGS: Final <frequency>  unchanged from initial value
 LBFGS: Final bulk modulus unchanged from initial value
  
  **********************************************************
  *** There were at least     1 warnings during this run ***
  *** => please check the whole of this file carefully!  ***
  **********************************************************
 
 ***************************** Symmetrised Forces *****************************
 *                                                                            *
 *                        Cartesian components (eV/A)                         *
 * -------------------------------------------------------------------------- *
 *                   x                    y                    z              *
 *                                                                            *
 * Na        1      0.03376             -0.00251              0.00000         *
 * Na        2     -0.01908             -0.02581              0.00000         *
 * Na        3     -0.01582              0.03183              0.00000         *
 * Na        4      0.01461             -0.03276              0.00000         *
 * Na        5      0.02149              0.02663              0.00000         *
 * Na        6     -0.03190              0.00184              0.00000         *
 * Zn        1      0.02701              0.02959              0.00000         *
 * Zn        2     -0.04111              0.01135              0.00000         *
 * Zn        3      0.00219             -0.00344              0.00000         *
 * Zn        4      0.01039             -0.03731              0.00000         *
 * Zn        5      0.04001             -0.01215              0.00000         *
 * Zn        6     -0.02745             -0.02948              0.00000         *
 * Zn        7     -0.01071              0.03887              0.00000         *
 * Zn        8     -0.00340              0.00337              0.00000         *
 *                                                                            *
 ******************************************************************************
 
 *********** Symmetrised Stress Tensor ***********
 *                                               *
 *          Cartesian components (GPa)           *
 * --------------------------------------------- *
 *             x             y             z     *
 *                                               *
 *  x     -0.081015      0.005088      0.000000  *
 *  y      0.005088     -0.074776      0.000000  *
 *  z      0.000000      0.000000     -0.073248  *
 *                                               *
 *  Pressure:    0.0763                          *
 *                                               *
 *************************************************
 
 Pseudo atomic calculation performed for Na 2s2 2p6 3s1
 
 Converged in 21 iterations to a total energy of -1302.6336 eV
 
 
 Pseudo atomic calculation performed for Zn 3d10 4s2
 
 Converged in 39 iterations to a total energy of -1708.2632 eV
 
Charge spilling parameter for spin component 1 = 0.02%
 
     Atomic Populations (Mulliken)
     -----------------------------
Species   Ion     s      p      d      f     Total  Charge (e)
==============================================================
  Na       1     2.17   6.38   0.00   0.00   8.55     0.45
  Na       2     2.17   6.38   0.00   0.00   8.55     0.45
  Na       3     2.17   6.38   0.00   0.00   8.55     0.45
  Na       4     2.17   6.38   0.00   0.00   8.55     0.45
  Na       5     2.17   6.38   0.00   0.00   8.55     0.45
  Na       6     2.17   6.38   0.00   0.00   8.55     0.45
  Zn       1     0.79   1.50   9.96   0.00  12.26    -0.26
  Zn       2     0.79   1.50   9.96   0.00  12.26    -0.26
  Zn       3     1.04   1.58   9.96   0.00  12.57    -0.57
  Zn       4     0.79   1.51   9.96   0.00  12.26    -0.26
  Zn       5     0.79   1.50   9.96   0.00  12.26    -0.26
  Zn       6     0.79   1.51   9.96   0.00  12.26    -0.26
  Zn       7     0.79   1.51   9.96   0.00  12.26    -0.26
  Zn       8     1.04   1.58   9.96   0.00  12.57    -0.57
==============================================================
 
            Bond              Population      Length (A)
============================================================
         Zn 3 -- Zn 7              0.95        2.64033
         Zn 4 -- Zn 8              0.95        2.64055
         Zn 3 -- Zn 6              0.95        2.64159
         Zn 1 -- Zn 8              0.95        2.64191
         Zn 2 -- Zn 8              0.94        2.64528
         Zn 3 -- Zn 5              0.94        2.64539
         Zn 4 -- Zn 7              1.35        2.74421
         Zn 1 -- Zn 6              1.35        2.74659
         Zn 2 -- Zn 5              1.33        2.75269
         Na 6 -- Zn 8             -0.42        2.85757
         Na 1 -- Zn 3             -0.42        2.85856
         Na 2 -- Zn 3             -0.42        2.85871
         Na 3 -- Zn 3             -0.42        2.85941
         Na 5 -- Zn 8             -0.42        2.85955
         Na 4 -- Zn 8             -0.42        2.86005
         Zn 2 -- Zn 4              0.28        2.91865
         Zn 5 -- Zn 7              0.28        2.91867
         Zn 1 -- Zn 2              0.28        2.91911
         Zn 5 -- Zn 6              0.28        2.91968
         Zn 6 -- Zn 7              0.27        2.92433
         Zn 1 -- Zn 4              0.27        2.92610
============================================================
 
Initialisation time =      1.61 s
Calculation time    =     76.31 s
Finalisation time   =      0.45 s
Total time          =     78.37 s
Peak Memory Use     = 675372 kB
  
Overall parallel efficiency rating: Excellent (97%)                             
  
Data was distributed by:-
k-point (15-way); efficiency rating: Excellent (98%)                            
  
Parallel notes:
1) Calculation only took 77.9 s, so efficiency estimates may be inaccurate.     
