 +-------------------------------------------------+
 |                                                 |
 |      CCC   AA    SSS  TTTTT  EEEEE  PPPP        |
 |     C     A  A  S       T    E      P   P       |
 |     C     AAAA   SS     T    EEE    PPPP        |
 |     C     A  A     S    T    E      P           |
 |      CCC  A  A  SSS     T    EEEEE  P           |
 |                                                 |
 +-------------------------------------------------+
 |                                                 |
 | Welcome to Academic Release CASTEP version 18.1 |          
 | Ab Initio Total Energy Program                  |
 |                                                 |
 | Authors:                                        |
 | M. Segall, M. Probert, C. Pickard, P. Hasnip,   |
 | S. Clark, K. Refson, J. R. Yates, M. Payne      |
 |                                                 |
 | Contributors:                                   |
 | P. Lindan, P. Haynes, J. White, V. Milman,      |
 | N. Govind, M. Gibson, P. Tulip, V. Cocula,      |
 | B. Montanari, D. Quigley, M. Glover,            |
 | L. Bernasconi, A. Perlov, M. Plummer,           |
 | E. McNellis, J. Meyer, J. Gale, D. Jochym       |
 | J. Aarons, B. Walker, R. Gillen, D. Jones       |
 | T. Green, I. J. Bush, C. J. Armstrong,          |
 | E. J. Higgins, E. L. Brown, M. S. McFly,        |
 | J. Wilkins, B-C. Shih, P. J. P. Byrne           |
 |                                                 |
 | Copyright (c) 2000 - 2017                       |
 |                                                 |
 |     Distributed under the terms of an           |
 |     Agreement between the United Kingdom        |
 |     Car-Parrinello (UKCP) Consortium,           |
 |     Daresbury Laboratory and Accelrys, Inc.     |
 |                                                 |
 | Please cite                                     |
 |                                                 |
 |     "First principles methods using CASTEP"     |
 |                                                 |
 |         Zeitschrift fuer Kristallographie       |
 |           220(5-6) pp. 567-570 (2005)           |
 |                                                 |
 | S. J. Clark, M. D. Segall, C. J. Pickard,       |
 | P. J. Hasnip, M. J. Probert, K. Refson,         |
 | M. C. Payne                                     |
 |                                                 |
 |       in all publications arising from          |
 |              your use of CASTEP                 |
 |                                                 |
 +-------------------------------------------------+
 
 
 Compiled for linux_x86_64_ifort17-TCM on Mon, 09 Apr 2018 10:49:52 +0100
 from code version baee3ec33e17+  Mon, 11 Dec 2017 11:05:17 +0000
 Compiler: Intel Fortran 17.0.2.174; Optimisation: fast
 MATHLIBS: Intel MKL(2017.0.2) (LAPACK version 3.7.0)
 FFT Lib : mkl
 Fundamental constants values: CODATA 2014
 
 Run started: Thu, 12 Apr 2018 10:09:03 +0100
 
 Atomic calculation performed for O: 1s2 2s2 2p4
 
 Converged in 61 iterations to an ae energy of -2040.902 eV
 
   ============================================================                
   | Pseudopotential Report - Date of generation 12-04-2018   |                
   ------------------------------------------------------------                
   | Element: O Ionic charge:  6.00 Level of theory: PBE      |                
   | Atomic Solver: Koelling-Harmon                           |                
   |                                                          |                
   |               Reference Electronic Structure             |                
   |         Orbital         Occupation         Energy        |                
   |            2s              2.000           -0.881        |                
   |            2p              4.000           -0.332        |                
   |                                                          |                
   |                 Pseudopotential Definition               |                
   |        Beta     l      e      Rc     scheme   norm       |                
   |          1      0   -0.881   1.497     qc      0         |                
   |          2      0    0.250   1.497     qc      0         |                
   |          3      1   -0.332   1.497     qc      0         |                
   |          4      1    0.250   1.497     qc      0         |                
   |         loc     2    0.000   1.497     pn      0         |                
   |                                                          |                
   | Augmentation charge Rinner = 1.046                       |                
   | Partial core correction Rc = 1.046                       |                
   ------------------------------------------------------------                
   | "2|1.5|12|13|15|20:21(qc=5)"                             |                
   ------------------------------------------------------------                
   |      Author: Chris J. Pickard, Cambridge University      |                
   ============================================================                
 
 Atomic calculation performed for Ti: 1s2 2s2 2p6 3s2 3p6 3d2 4s2
 
 Converged in 79 iterations to an ae energy of -23226.658 eV
 
   ============================================================                
   | Pseudopotential Report - Date of generation 12-04-2018   |                
   ------------------------------------------------------------                
   | Element: Ti Ionic charge: 12.00 Level of theory: PBE     |                
   | Atomic Solver: Koelling-Harmon                           |                
   |                                                          |                
   |               Reference Electronic Structure             |                
   |         Orbital         Occupation         Energy        |                
   |            3s              2.000           -2.302        |                
   |            3p              6.000           -1.428        |                
   |            4s              2.000           -0.164        |                
   |            3d              2.000           -0.157        |                
   |                                                          |                
   |                 Pseudopotential Definition               |                
   |        Beta     l      e      Rc     scheme   norm       |                
   |          1      0   -2.302   1.901     qc      0         |                
   |          2      0   -0.164   1.901     qc      0         |                
   |          3      0    0.250   1.901     qc      0         |                
   |          4      1   -1.428   1.901     qc      0         |                
   |          5      1    0.250   1.901     qc      0         |                
   |          6      2   -0.157   1.901     qc      0         |                
   |          7      2    0.250   1.901     qc      0         |                
   |         loc     3    0.000   1.901     pn      0         |                
   |                                                          |                
   | Augmentation charge Rinner = 1.328                       |                
   | Partial core correction Rc = 1.328                       |                
   ------------------------------------------------------------                
   | "3|1.9|8|9|10|30U:40:31:32(qc=5)"                        |                
   ------------------------------------------------------------                
   |      Author: Chris J. Pickard, Cambridge University      |                
   ============================================================                
 
 Pseudo atomic calculation performed for O 2s2 2p4
 
 Converged in 22 iterations to a total energy of -430.8614 eV
 
 
 Pseudo atomic calculation performed for Ti 3s2 3p6 3d2 4s2
 
 Converged in 32 iterations to a total energy of -1591.8352 eV
 
 Calculation parallelised over 16 processes.
 Data is distributed by G-vector(4-way) and k-point(4-way)

 ************************************ Title ************************************
 

 ***************************** General Parameters ******************************
  
 output verbosity                               : normal  (1)
 write checkpoint data to                       : Voro_TiO2-ii0WDxQY.check
 type of calculation                            : geometry optimization
 stress calculation                             : on
 density difference calculation                 : off
 electron localisation func (ELF) calculation   : off
 Hirshfeld analysis                             : off
 unlimited duration calculation
 timing information                             : on
 memory usage estimate                          : on
 write extra output files                       : on
 write final potential to formatted file        : off
 write final density to formatted file          : off
 write structure in CELL formatted file         : on
 write BibTeX reference list                    : off
 write OTFG pseudopotential files               : on
 write electrostatic potential file             : on
 write bands file                               : on
 checkpoint writing                             : off
  
 output         length unit                     : A
 output           mass unit                     : amu
 output           time unit                     : ps
 output         charge unit                     : e
 output           spin unit                     : hbar/2
 output         energy unit                     : eV
 output          force unit                     : eV/A
 output       velocity unit                     : A/ps
 output       pressure unit                     : GPa
 output     inv_length unit                     : 1/A
 output      frequency unit                     : cm-1
 output force constant unit                     : eV/A**2
 output         volume unit                     : A**3
 output   IR intensity unit                     : (D/A)**2/amu
 output         dipole unit                     : D
 output         efield unit                     : eV/A/e
 output        entropy unit                     : J/mol/K
  
 wavefunctions paging                           : none
 random number generator seed                   : randomised (100903308)
 data distribution                              : optimal for this architecture
 optimization strategy                          : maximize speed(+++)

 *********************** Exchange-Correlation Parameters ***********************
  
 using functional                               : Perdew Burke Ernzerhof
 relativistic treatment                         : Koelling-Harmon
 DFT+D: Semi-empirical dispersion correction    : off

 ************************* Pseudopotential Parameters **************************
  
 pseudopotential representation                 : reciprocal space
 <beta|phi> representation                      : reciprocal space
 spin-orbit coupling                            : off

 **************************** Basis Set Parameters *****************************
  
 plane wave basis set cut-off                   :   500.0000   eV
 size of standard grid                          :     1.7500
 size of   fine   gmax                          :    20.0476   1/A
 finite basis set correction                    : none

 **************************** Electronic Parameters ****************************
  
 number of  electrons                           :  96.00    
 net charge of system                           :  0.000    
 treating system as non-spin-polarized
 number of bands                                :         58

 ********************* Electronic Minimization Parameters **********************
  
 Method: Treating system as metallic with density mixing treatment of electrons,
         and number of  SD  steps               :          1
         and number of  CG  steps               :          4
  
 total energy / atom convergence tol.           : 0.1000E-04   eV
 eigen-energy convergence tolerance             : 0.1000E-05   eV
 max force / atom convergence tol.              : ignored
 convergence tolerance window                   :          3   cycles
 max. number of SCF cycles                      :        300
 number of fixed-spin iterations                :         10
 smearing scheme                                : Gaussian
 smearing width                                 : 0.2000       eV
 Fermi energy convergence tolerance             : 0.2721E-13   eV
 periodic dipole correction                     : NONE

 ************************** Density Mixing Parameters **************************
  
 density-mixing scheme                          : Pulay
 max. length of mixing history                  :         20
 charge density mixing amplitude                : 0.8000    
 cut-off energy for mixing                      :  500.0       eV

 *********************** Population Analysis Parameters ************************
  
 Population analysis with cutoff                :  3.000       A
 Population analysis output                     : summary and pdos components

 ********************** Geometry Optimization Parameters ***********************
  
 optimization method                            : LBFGS
 max. no. of LBFGS updates                      : unbounded
 variable cell method                           : fixed basis quality
 max. number of steps                           :          2
 estimated bulk modulus                         :  500.0       GPa
 estimated <frequency>                          :  1668.       cm-1
 geom line minimiser                            : on
 with line minimiser tolerance                  :     0.4000
 total energy convergence tolerance             : 0.2000E-04   eV/atom
        max ionic |force| tolerance             : 0.5000E-01   eV/A
 max ionic |displacement| tolerance             : 0.1000E-02   A
   max |stress component| tolerance             : 0.1000       GPa
 convergence tolerance window                   :          2   steps
 backup results every                           : 2147483647   steps
 write geom trajectory file                     : on

 *******************************************************************************
  
 
                           -------------------------------
                                      Unit Cell
                           -------------------------------
        Real Lattice(A)                      Reciprocal Lattice(1/A)
     3.6630600     0.0000000     0.0000000        1.715283208   0.000000000   0.000000000
     0.0000000     7.4143700     0.0000000        0.000000000   0.847433471   0.000000000
     0.0000000     0.0000000     5.5679500        0.000000000   0.000000000   1.128455770
 
                       Lattice parameters(A)       Cell Angles
                    a =      3.663060          alpha =   90.000000
                    b =      7.414370          beta  =   90.000000
                    c =      5.567950          gamma =   90.000000
 
                       Current cell volume =           151.221525       A**3
                                   density =             2.112551   AMU/A**3
                                           =             3.507974     g/cm^3
 
                           -------------------------------
                                     Cell Contents
                           -------------------------------
                         Total number of ions in cell =   12
                      Total number of species in cell =    2
                        Max number of any one species =    8
 
            xxxxxxxxxxxxxxxxxxxxxxxxxxxxxxxxxxxxxxxxxxxxxxxxxxxxxxxxxxxx
            x  Element    Atom        Fractional coordinates of atoms  x
            x            Number           u          v          w      x
            x----------------------------------------------------------x
            x  O            1         0.000000   0.000000   0.000000   x 
            x  O            2         0.500000   0.500000   0.000000   x 
            x  O            3         0.500000   0.000000   0.500000   x 
            x  O            4         0.000000   0.500000   0.500000   x 
            x  O            5         0.500000   0.750000   0.000000   x 
            x  O            6         0.500000   0.250000   0.000000   x 
            x  O            7         0.000000   0.250000   0.000000   x 
            x  O            8         0.000000   0.750000   0.000000   x 
            x  Ti           1         0.500000   0.500000   0.000000   x 
            x  Ti           2         0.000000   0.000000   0.500000   x 
            x  Ti           3         0.000000   0.500000   0.500000   x 
            x  Ti           4         0.500000   0.000000   0.000000   x 
            xxxxxxxxxxxxxxxxxxxxxxxxxxxxxxxxxxxxxxxxxxxxxxxxxxxxxxxxxxxx
 
       **********  Atom Position W A R N I N G: Overlapping atoms! *********
       *                                                                   *
       *   Atoms: O    2 and Ti   1 are VERY close: distance= 0.000 Bohr   *
       *   Atoms: O    4 and Ti   3 are VERY close: distance= 0.000 Bohr   *
       *                                                                   *
       *********************************************************************
 
                         No user defined ionic velocities
 
                           -------------------------------
                                   Details of Species
                           -------------------------------
 
                               Mass of species in AMU
                                    O   15.9994000
                                    Ti   47.8670000
 
                          Electric Quadrupole Moment (Barn)
                                    O   -0.0255800 Isotope 17
                                    Ti    0.3020000 Isotope 47
 
                          Files used for pseudopotentials:
                                    O 2|1.5|12|13|15|20:21(qc=5)
                                    Ti 3|1.9|8|9|10|30U:40:31:32(qc=5)
 
                           -------------------------------
                              k-Points For BZ Sampling
                           -------------------------------
                       MP grid size for SCF calculation is  4  2  3
                            with an offset of   0.000  0.000  0.000
                       Number of kpoints used =             4
 
                           -------------------------------
                               Symmetry and Constraints
                           -------------------------------
 
                      Maximum deviation from symmetry = 0.188002E-14     ANG
 
                      Number of symmetry operations   =           8
                      Number of ionic constraints     =           3
                      Point group of crystal =     8: D2h, mmm, 2/m 2/m 2/m
                      Space group of crystal =    47: Pmmm, -P 2 2
 
             Set iprint > 1 for details on symmetry rotations/translations
 
                         Centre of mass is constrained
             Set iprint > 1 for details of linear ionic constraints
 
                         Number of cell constraints= 3
                         Cell constraints are:  1 2 3 0 0 0
 
                         External pressure/stress (GPa)
                          0.00000   0.00000   0.00000
                                    0.00000   0.00000
                                              0.00000
  
+---------------- MEMORY AND SCRATCH DISK ESTIMATES PER PROCESS --------------+
|                                                     Memory          Disk    |
| Baseline code, static data and system overhead      313.0 MB         0.0 MB |
| BLAS internal memory storage                          0.0 MB         0.0 MB |
| Model and support data                               60.5 MB         0.0 MB |
| Electronic energy minimisation requirements           8.8 MB         0.0 MB |
| Force calculation requirements                        2.1 MB         0.0 MB |
| Stress calculation requirements                       2.2 MB         0.0 MB |
|                                               ----------------------------- |
| Approx. total storage required per process          382.3 MB         0.0 MB |
|                                                                             |
| Requirements will fluctuate during execution and may exceed these estimates |
+-----------------------------------------------------------------------------+
Calculating total energy with cut-off of  500.000 eV.
------------------------------------------------------------------------ <-- SCF
SCF loop      Energy           Fermi           Energy gain       Timer   <-- SCF
                               energy          per atom          (sec)   <-- SCF
------------------------------------------------------------------------ <-- SCF
Initial  -1.11835695E+004  0.00000000E+000                        10.49  <-- SCF
      1  -1.24777379E+004  4.60148067E+000   1.07847363E+002      10.87  <-- SCF
      2  -1.27683638E+004  2.80552284E+000   2.42188261E+001      11.13  <-- SCF
      3  -1.27751987E+004  2.92541026E+000   5.69575287E-001      11.42  <-- SCF
      4  -1.27878244E+004  8.35683916E+000   1.05214321E+000      11.84  <-- SCF
      5  -1.26124009E+004  4.46816209E+000  -1.46186276E+001      12.25  <-- SCF
      6  -1.26168527E+004  4.29168775E+000   3.70986951E-001      12.53  <-- SCF
      7  -1.25820502E+004  3.42684036E+000  -2.90020789E+000      12.89  <-- SCF
      8  -1.25820770E+004  3.42593523E+000   2.23085808E-003      13.18  <-- SCF
      9  -1.25737343E+004  4.07737822E+000  -6.95224533E-001      13.52  <-- SCF
     10  -1.25616694E+004  4.17086677E+000  -1.00540719E+000      13.89  <-- SCF
     11  -1.25573929E+004  4.32589805E+000  -3.56374848E-001      14.29  <-- SCF
     12  -1.25499162E+004  4.28341383E+000  -6.23056880E-001      14.66  <-- SCF
     13  -1.25469068E+004  4.05175026E+000  -2.50784146E-001      15.04  <-- SCF
     14  -1.25475800E+004  3.48685858E+000   5.61024611E-002      15.43  <-- SCF
     15  -1.25459944E+004  3.40386476E+000  -1.32134463E-001      15.79  <-- SCF
     16  -1.25466252E+004  3.54466516E+000   5.25674690E-002      16.15  <-- SCF
     17  -1.25442502E+004  3.49879159E+000  -1.97921080E-001      16.51  <-- SCF
     18  -1.25436778E+004  3.52786490E+000  -4.76982877E-002      16.88  <-- SCF
     19  -1.25436100E+004  3.55116767E+000  -5.65300856E-003      17.23  <-- SCF
     20  -1.25435609E+004  3.39971582E+000  -4.08730285E-003      17.58  <-- SCF
     21  -1.25434293E+004  3.40497169E+000  -1.09683999E-002      17.91  <-- SCF
     22  -1.25440456E+004  3.42363778E+000   5.13598148E-002      18.27  <-- SCF
     23  -1.25433944E+004  3.41475990E+000  -5.42680077E-002      18.59  <-- SCF
     24  -1.25434707E+004  3.47684323E+000   6.36123254E-003      18.93  <-- SCF
     25  -1.25435067E+004  3.47221320E+000   2.99832014E-003      19.25  <-- SCF
     26  -1.25433784E+004  3.51403116E+000  -1.06945354E-002      19.61  <-- SCF
     27  -1.25434256E+004  3.50993365E+000   3.93336320E-003      19.93  <-- SCF
     28  -1.25434293E+004  3.51928792E+000   3.08528787E-004      20.27  <-- SCF
     29  -1.25434306E+004  3.51929883E+000   1.10957334E-004      20.59  <-- SCF
     30  -1.25434321E+004  3.52254689E+000   1.24814858E-004      20.88  <-- SCF
     31  -1.25434311E+004  3.52806747E+000  -8.65281275E-005      21.16  <-- SCF
     32  -1.25434316E+004  3.53373030E+000   4.03785615E-005      21.42  <-- SCF
     33  -1.25434314E+004  3.53526132E+000  -1.48301707E-005      21.64  <-- SCF
     34  -1.25434314E+004  3.53742396E+000   2.45080781E-006      21.86  <-- SCF
     35  -1.25434314E+004  3.53853735E+000  -3.77093754E-006      22.09  <-- SCF
------------------------------------------------------------------------ <-- SCF
 
Final energy, E             =  -12543.22194203     eV
Final free energy (E-TS)    =  -12543.43137452     eV
(energies not corrected for finite basis set)
 
NB est. 0K energy (E-0.5TS)      =  -12543.32665828     eV
 

WARNING - doing cell minimisation without finite basis correction:
        => now searching for a stationary and not minimum energy
 
+---------------- MEMORY AND SCRATCH DISK ESTIMATES PER PROCESS --------------+
|                                                     Memory          Disk    |
| Model and support data                               71.0 MB         0.0 MB |
| Electronic energy minimisation requirements           8.8 MB         0.0 MB |
| Geometry minimisation requirements                    9.9 MB         0.0 MB |
|                                               ----------------------------- |
| Approx. total storage required per process           89.7 MB         0.0 MB |
|                                                                             |
| Requirements will fluctuate during execution and may exceed these estimates |
+-----------------------------------------------------------------------------+
 
 
 ******************************** Symmetrised Forces ********************************
 *                                                                                  *
 *                           Cartesian components (eV/A)                            *
 * -------------------------------------------------------------------------------- *
 *                         x                    y                    z              *
 *                                                                                  *
 * O               1      0.00000              0.00000              0.00000         *
 * O               2      0.00000              0.00000              0.00000         *
 * O               3      0.00000              0.00000              0.00000         *
 * O               4      0.00000              0.00000              0.00000         *
 * O               5      0.00000              3.55024              0.00000         *
 * O               6      0.00000             -3.55024             -0.00000         *
 * O               7      0.00000              2.27486              0.00000         *
 * O               8      0.00000             -2.27486              0.00000         *
 * Ti              1      0.00000              0.00000              0.00000         *
 * Ti              2      0.00000              0.00000              0.00000         *
 * Ti              3      0.00000              0.00000              0.00000         *
 * Ti              4      0.00000              0.00000              0.00000         *
 *                                                                                  *
 ************************************************************************************
 
 *********** Symmetrised Stress Tensor ***********
 *                                               *
 *          Cartesian components (GPa)           *
 * --------------------------------------------- *
 *             x             y             z     *
 *                                               *
 *  x    -25.787089      0.000000      0.000000  *
 *  y      0.000000    -22.569748      0.000000  *
 *  z      0.000000      0.000000      8.611187  *
 *                                               *
 *  Pressure:   13.2485                          *
 *                                               *
 *************************************************
 LBFGS: finished iteration     0 with enthalpy= -1.25434314E+004 eV
  
 +-----------+-----------------+-----------------+------------+-----+ <-- LBFGS
 | Parameter |      value      |    tolerance    |    units   | OK? | <-- LBFGS
 +-----------+-----------------+-----------------+------------+-----+ <-- LBFGS
 |  dE/ion   |   0.000000E+000 |   2.000000E-005 |         eV | No  | <-- LBFGS
 |  |F|max   |   3.550236E+000 |   5.000000E-002 |       eV/A | No  | <-- LBFGS
 |  |dR|max  |   0.000000E+000 |   1.000000E-003 |          A | No  | <-- LBFGS
 |   Smax    |   2.578709E+001 |   1.000000E-001 |        GPa | No  | <-- LBFGS
 +-----------+-----------------+-----------------+------------+-----+ <-- LBFGS
  

================================================================================
 Starting LBFGS iteration          1 ...
================================================================================
  
 +------------+-------------+-------------+-----------------+ <-- min LBFGS
 |    Step    |   lambda    |   F.delta'  |    enthalpy     | <-- min LBFGS
 +------------+-------------+-------------+-----------------+ <-- min LBFGS
 |  previous  |    0.000000 |    1.418209 |   -12543.431375 | <-- min LBFGS
 +------------+-------------+-------------+-----------------+ <-- min LBFGS
  

--------------------------------------------------------------------------------
 LBFGS: starting iteration         1 with trial guess (lambda=  1.000000)
--------------------------------------------------------------------------------
 
+---------------- MEMORY AND SCRATCH DISK ESTIMATES PER PROCESS --------------+
|                                                     Memory          Disk    |
| Model and support data                               71.9 MB         0.0 MB |
| Electronic energy minimisation requirements           8.9 MB         0.0 MB |
| Geometry minimisation requirements                   10.0 MB         0.0 MB |
|                                               ----------------------------- |
| Approx. total storage required per process           90.8 MB         0.0 MB |
|                                                                             |
| Requirements will fluctuate during execution and may exceed these estimates |
+-----------------------------------------------------------------------------+
 
 
                           -------------------------------
                                      Unit Cell
                           -------------------------------
        Real Lattice(A)              Reciprocal Lattice(1/A)
     3.7260331     0.0000000     0.0000000        1.686293475   0.000000000  -0.000000000
     0.0000000     7.5259303     0.0000000        0.000000000   0.834871578   0.000000000
     0.0000000     0.0000000     5.5359856       -0.000000000   0.000000000   1.134971404
 
                       Lattice parameters(A)       Cell Angles
                    a =      3.726033          alpha =   90.000000
                    b =      7.525930          beta  =   90.000000
                    c =      5.535986          gamma =   90.000000
 
                Current cell volume =           155.239362 A**3
 
                           -------------------------------
                                     Cell Contents
                           -------------------------------
 
            xxxxxxxxxxxxxxxxxxxxxxxxxxxxxxxxxxxxxxxxxxxxxxxxxxxxxxxxxxxxxxxxx
            x  Element         Atom        Fractional coordinates of atoms  x
            x                 Number           u          v          w      x
            x---------------------------------------------------------------x
            x  O                 1         0.000000   0.000000   0.000000   x
            x  O                 2         0.500000   0.500000   0.000000   x
            x  O                 3         0.500000   0.000000   0.500000   x
            x  O                 4         0.000000   0.500000   0.500000   x
            x  O                 5         0.500000   0.751758   0.000000   x
            x  O                 6         0.500000   0.248242   0.000000   x
            x  O                 7         0.000000   0.251127   0.000000   x
            x  O                 8         0.000000   0.748873   0.000000   x
            x  Ti                1         0.500000   0.500000   0.000000   x
            x  Ti                2         0.000000   0.000000   0.500000   x
            x  Ti                3         0.000000   0.500000   0.500000   x
            x  Ti                4         0.500000   0.000000   0.000000   x
            xxxxxxxxxxxxxxxxxxxxxxxxxxxxxxxxxxxxxxxxxxxxxxxxxxxxxxxxxxxxxxxxx
 
 
------------------------------------------------------------------------ <-- SCF
SCF loop      Energy           Fermi           Energy gain       Timer   <-- SCF
                               energy          per atom          (sec)   <-- SCF
------------------------------------------------------------------------ <-- SCF
Initial  -1.25515786E+004  0.00000000E+000                        24.93  <-- SCF
      1  -1.25573334E+004  2.61714722E+000   4.79562413E-001      25.21  <-- SCF
      2  -1.25573848E+004  2.61648504E+000   4.28903498E-003      25.62  <-- SCF
 Warning: There are no empty bands for at least one kpoint and spin; this may
          slow the convergence and/or lead to an inaccurate groundstate.
          If this warning persists, you should consider increasing nextra_bands
          and/or reducing smearing_width in the param file.
          Recommend using nextra_bands of 16 to 30.                             
  
      3  -1.25992437E+004  5.57153673E+000   3.48823642E+000      26.01  <-- SCF
      4  -1.25995995E+004  5.49689381E+000   2.96493066E-002      26.31  <-- SCF
      5  -1.25588119E+004  3.84748154E+000  -3.39896147E+000      26.74  <-- SCF
      6  -1.25588946E+004  3.85153615E+000   6.89090759E-003      27.02  <-- SCF
      7  -1.25554652E+004  3.39665905E+000  -2.85782726E-001      27.41  <-- SCF
      8  -1.25555338E+004  3.48712917E+000   5.71781053E-003      27.79  <-- SCF
      9  -1.25547082E+004  3.51149962E+000  -6.88012714E-002      28.16  <-- SCF
     10  -1.25547090E+004  3.49831269E+000   6.62354526E-005      28.54  <-- SCF
     11  -1.25546710E+004  3.45099697E+000  -3.17100758E-003      28.90  <-- SCF
     12  -1.25546262E+004  3.38725439E+000  -3.73030638E-003      29.25  <-- SCF
     13  -1.25545927E+004  3.37671804E+000  -2.79270093E-003      29.60  <-- SCF
     14  -1.25545481E+004  3.33653792E+000  -3.71168120E-003      29.95  <-- SCF
     15  -1.25545130E+004  3.30313779E+000  -2.93089462E-003      30.32  <-- SCF
     16  -1.25544957E+004  3.27716226E+000  -1.43960322E-003      30.66  <-- SCF
     17  -1.25544840E+004  3.24743259E+000  -9.71864591E-004      31.03  <-- SCF
     18  -1.25544829E+004  3.23307514E+000  -9.14246758E-005      31.37  <-- SCF
     19  -1.25544830E+004  3.23255714E+000   5.74472966E-006      31.62  <-- SCF
     20  -1.25544828E+004  3.23272365E+000  -1.89008608E-005      31.91  <-- SCF
     21  -1.25544829E+004  3.23227655E+000   6.25325691E-006      32.16  <-- SCF
     22  -1.25544828E+004  3.23032008E+000  -1.31999413E-006      32.41  <-- SCF
------------------------------------------------------------------------ <-- SCF
 
Final energy, E             =  -12554.26625477     eV
Final free energy (E-TS)    =  -12554.48283509     eV
(energies not corrected for finite basis set)
 
NB est. 0K energy (E-0.5TS)      =  -12554.37454493     eV
 
 
 ******************************** Symmetrised Forces ********************************
 *                                                                                  *
 *                           Cartesian components (eV/A)                            *
 * -------------------------------------------------------------------------------- *
 *                         x                    y                    z              *
 *                                                                                  *
 * O               1      0.00000              0.00000              0.00000         *
 * O               2      0.00000              0.00000              0.00000         *
 * O               3      0.00000              0.00000              0.00000         *
 * O               4      0.00000              0.00000              0.00000         *
 * O               5      0.00000              3.06299              0.00000         *
 * O               6     -0.00000             -3.06299             -0.00000         *
 * O               7     -0.00000              1.80992              0.00000         *
 * O               8      0.00000             -1.80992              0.00000         *
 * Ti              1      0.00000              0.00000              0.00000         *
 * Ti              2      0.00000              0.00000              0.00000         *
 * Ti              3      0.00000              0.00000              0.00000         *
 * Ti              4      0.00000              0.00000              0.00000         *
 *                                                                                  *
 ************************************************************************************
 
 *********** Symmetrised Stress Tensor ***********
 *                                               *
 *          Cartesian components (GPa)           *
 * --------------------------------------------- *
 *             x             y             z     *
 *                                               *
 *  x    -17.152671      0.000000      0.000000  *
 *  y      0.000000    -15.023238      0.000000  *
 *  z      0.000000      0.000000      9.395848  *
 *                                               *
 *  Pressure:    7.5934                          *
 *                                               *
 *************************************************
  
 +------------+-------------+-------------+-----------------+ <-- min LBFGS
 |    Step    |   lambda    |   F.delta'  |    enthalpy     | <-- min LBFGS
 +------------+-------------+-------------+-----------------+ <-- min LBFGS
 |  previous  |    0.000000 |    1.418209 |   -12543.431375 | <-- min LBFGS
 | trial step |    1.000000 |    1.023176 |   -12554.482835 | <-- min LBFGS
 +------------+-------------+-------------+-----------------+ <-- min LBFGS
  

--------------------------------------------------------------------------------
 LBFGS: improving iteration         1 with line minimization (lambda=  2.371709)
--------------------------------------------------------------------------------
 
+---------------- MEMORY AND SCRATCH DISK ESTIMATES PER PROCESS --------------+
|                                                     Memory          Disk    |
| Model and support data                               72.8 MB         0.0 MB |
| Electronic energy minimisation requirements           9.1 MB         0.0 MB |
| Geometry minimisation requirements                   10.3 MB         0.0 MB |
|                                               ----------------------------- |
| Approx. total storage required per process           92.3 MB         0.0 MB |
|                                                                             |
| Requirements will fluctuate during execution and may exceed these estimates |
+-----------------------------------------------------------------------------+
 
 
                           -------------------------------
                                      Unit Cell
                           -------------------------------
        Real Lattice(A)              Reciprocal Lattice(1/A)
     3.8124139     0.0000000     0.0000000        1.648085831   0.000000000  -0.000000000
     0.0000000     7.6789586     0.0000000        0.000000000   0.818234038   0.000000000
     0.0000000     0.0000000     5.4921396       -0.000000000   0.000000000   1.144032328
 
                       Lattice parameters(A)       Cell Angles
                    a =      3.812414          alpha =   90.000000
                    b =      7.678959          beta  =   90.000000
                    c =      5.492140          gamma =   90.000000
 
                Current cell volume =           160.784412 A**3
 
                           -------------------------------
                                     Cell Contents
                           -------------------------------
 
            xxxxxxxxxxxxxxxxxxxxxxxxxxxxxxxxxxxxxxxxxxxxxxxxxxxxxxxxxxxxxxxxx
            x  Element         Atom        Fractional coordinates of atoms  x
            x                 Number           u          v          w      x
            x---------------------------------------------------------------x
            x  O                 1         0.000000   0.000000   0.000000   x
            x  O                 2         0.500000   0.500000   0.000000   x
            x  O                 3         0.500000   0.000000   0.500000   x
            x  O                 4         0.000000   0.500000   0.500000   x
            x  O                 5         0.500000   0.754170   0.000000   x
            x  O                 6         0.500000   0.245830   0.000000   x
            x  O                 7         0.000000   0.252672   0.000000   x
            x  O                 8         0.000000   0.747328   0.000000   x
            x  Ti                1         0.500000   0.500000   0.000000   x
            x  Ti                2         0.000000   0.000000   0.500000   x
            x  Ti                3         0.000000   0.500000   0.500000   x
            x  Ti                4         0.500000   0.000000   0.000000   x
            xxxxxxxxxxxxxxxxxxxxxxxxxxxxxxxxxxxxxxxxxxxxxxxxxxxxxxxxxxxxxxxxx
 
 
------------------------------------------------------------------------ <-- SCF
SCF loop      Energy           Fermi           Energy gain       Timer   <-- SCF
                               energy          per atom          (sec)   <-- SCF
------------------------------------------------------------------------ <-- SCF
Initial  -1.25636623E+004  0.00000000E+000                        33.68  <-- SCF
      1  -1.25736905E+004  1.83427774E+000   8.35683560E-001      34.02  <-- SCF
      2  -1.25737841E+004  1.83362398E+000   7.79932022E-003      34.49  <-- SCF
      3  -1.26294626E+004  5.75915391E+000   4.63987293E+000      34.96  <-- SCF
      4  -1.26302460E+004  5.60838144E+000   6.52824596E-002      35.31  <-- SCF
      5  -1.25770057E+004  3.45482593E+000  -4.43669009E+000      35.80  <-- SCF
      6  -1.25771993E+004  3.47478744E+000   1.61337793E-002      36.11  <-- SCF
      7  -1.25702634E+004  3.15129310E+000  -5.77996583E-001      36.57  <-- SCF
      8  -1.25699344E+004  3.11525621E+000  -2.74148182E-002      37.02  <-- SCF
      9  -1.25691647E+004  3.13910287E+000  -6.41424357E-002      37.46  <-- SCF
     10  -1.25690775E+004  3.09657580E+000  -7.26752637E-003      37.89  <-- SCF
     11  -1.25690558E+004  3.05271014E+000  -1.80601201E-003      38.33  <-- SCF
     12  -1.25689409E+004  2.95517248E+000  -9.57912725E-003      38.76  <-- SCF
     13  -1.25689056E+004  2.96209799E+000  -2.93603547E-003      39.16  <-- SCF
     14  -1.25688558E+004  2.91913462E+000  -4.14891073E-003      39.60  <-- SCF
     15  -1.25688317E+004  2.89889460E+000  -2.01192899E-003      39.99  <-- SCF
     16  -1.25687927E+004  2.86249766E+000  -3.24927309E-003      40.42  <-- SCF
     17  -1.25687828E+004  2.83894238E+000  -8.23804633E-004      40.85  <-- SCF
     18  -1.25687819E+004  2.83519944E+000  -7.64257010E-005      41.21  <-- SCF
     19  -1.25687816E+004  2.83244674E+000  -2.48719130E-005      41.53  <-- SCF
     20  -1.25687810E+004  2.82366454E+000  -5.08402043E-005      41.90  <-- SCF
     21  -1.25687811E+004  2.82362138E+000   6.10894028E-006      42.17  <-- SCF
     22  -1.25687810E+004  2.82271295E+000  -1.27002578E-006      42.46  <-- SCF
------------------------------------------------------------------------ <-- SCF
 
Final energy, E             =  -12568.55217344     eV
Final free energy (E-TS)    =  -12568.78104317     eV
(energies not corrected for finite basis set)
 
NB est. 0K energy (E-0.5TS)      =  -12568.66660830     eV
 
 
 ******************************** Symmetrised Forces ********************************
 *                                                                                  *
 *                           Cartesian components (eV/A)                            *
 * -------------------------------------------------------------------------------- *
 *                         x                    y                    z              *
 *                                                                                  *
 * O               1      0.00000              0.00000              0.00000         *
 * O               2      0.00000              0.00000              0.00000         *
 * O               3      0.00000              0.00000              0.00000         *
 * O               4      0.00000              0.00000              0.00000         *
 * O               5      0.00000              2.55760              0.00000         *
 * O               6      0.00000             -2.55760             -0.00000         *
 * O               7      0.00000              1.27479              0.00000         *
 * O               8     -0.00000             -1.27479             -0.00000         *
 * Ti              1      0.00000              0.00000              0.00000         *
 * Ti              2      0.00000              0.00000              0.00000         *
 * Ti              3      0.00000              0.00000              0.00000         *
 * Ti              4      0.00000              0.00000              0.00000         *
 *                                                                                  *
 ************************************************************************************
 
 *********** Symmetrised Stress Tensor ***********
 *                                               *
 *          Cartesian components (GPa)           *
 * --------------------------------------------- *
 *             x             y             z     *
 *                                               *
 *  x     -7.144147      0.000000      0.000000  *
 *  y      0.000000     -6.693113      0.000000  *
 *  z      0.000000      0.000000     10.412404  *
 *                                               *
 *  Pressure:    1.1416                          *
 *                                               *
 *************************************************
  
 +------------+-------------+-------------+-----------------+ <-- min LBFGS
 |    Step    |   lambda    |   F.delta'  |    enthalpy     | <-- min LBFGS
 +------------+-------------+-------------+-----------------+ <-- min LBFGS
 |  previous  |    0.000000 |    1.418209 |   -12543.431375 | <-- min LBFGS
 | trial step |    1.000000 |    1.023176 |   -12554.482835 | <-- min LBFGS
 |  line step |    2.371709 |    0.569561 |   -12568.781043 | <-- min LBFGS
 +------------+-------------+-------------+-----------------+ <-- min LBFGS
  

--------------------------------------------------------------------------------
 LBFGS: improving iteration         1 with quad minimization (lambda=  4.094030)
--------------------------------------------------------------------------------
 
+---------------- MEMORY AND SCRATCH DISK ESTIMATES PER PROCESS --------------+
|                                                     Memory          Disk    |
| Model and support data                               76.8 MB         0.0 MB |
| Electronic energy minimisation requirements           9.6 MB         0.0 MB |
| Geometry minimisation requirements                   10.9 MB         0.0 MB |
|                                               ----------------------------- |
| Approx. total storage required per process           97.3 MB         0.0 MB |
|                                                                             |
| Requirements will fluctuate during execution and may exceed these estimates |
+-----------------------------------------------------------------------------+
 
 
                           -------------------------------
                                      Unit Cell
                           -------------------------------
        Real Lattice(A)              Reciprocal Lattice(1/A)
     3.9208738     0.0000000     0.0000000        1.602496190   0.000000000  -0.000000000
     0.0000000     7.8711013     0.0000000        0.000000000   0.798260000   0.000000000
     0.0000000     0.0000000     5.4370866       -0.000000000   0.000000000   1.155616186
 
                       Lattice parameters(A)       Cell Angles
                    a =      3.920874          alpha =   90.000000
                    b =      7.871101          beta  =   90.000000
                    c =      5.437087          gamma =   90.000000
 
                Current cell volume =           167.797164 A**3
 
                           -------------------------------
                                     Cell Contents
                           -------------------------------
 
            xxxxxxxxxxxxxxxxxxxxxxxxxxxxxxxxxxxxxxxxxxxxxxxxxxxxxxxxxxxxxxxxx
            x  Element         Atom        Fractional coordinates of atoms  x
            x                 Number           u          v          w      x
            x---------------------------------------------------------------x
            x  O                 1         0.000000   0.000000   0.000000   x
            x  O                 2         0.500000   0.500000   0.000000   x
            x  O                 3         0.500000   0.000000   0.500000   x
            x  O                 4         0.000000   0.500000   0.500000   x
            x  O                 5         0.500000   0.757199   0.000000   x
            x  O                 6         0.500000   0.242801   0.000000   x
            x  O                 7         0.000000   0.254613   0.000000   x
            x  O                 8         0.000000   0.745387   0.000000   x
            x  Ti                1         0.500000   0.500000   0.000000   x
            x  Ti                2         0.000000   0.000000   0.500000   x
            x  Ti                3         0.000000   0.500000   0.500000   x
            x  Ti                4         0.500000   0.000000   0.000000   x
            xxxxxxxxxxxxxxxxxxxxxxxxxxxxxxxxxxxxxxxxxxxxxxxxxxxxxxxxxxxxxxxxx
 
 
------------------------------------------------------------------------ <-- SCF
SCF loop      Energy           Fermi           Energy gain       Timer   <-- SCF
                               energy          per atom          (sec)   <-- SCF
------------------------------------------------------------------------ <-- SCF
Initial  -1.25777946E+004  0.00000000E+000                        45.55  <-- SCF
      1  -1.25928851E+004  1.07512853E+000   1.25754097E+000      45.90  <-- SCF
      2  -1.25930367E+004  1.07437574E+000   1.26368540E-002      46.42  <-- SCF
      3  -1.26595734E+004  5.93113349E+000   5.54472397E+000      46.92  <-- SCF
      4  -1.26609327E+004  5.70142726E+000   1.13275273E-001      47.30  <-- SCF
      5  -1.25978384E+004  2.87485937E+000  -5.25785623E+000      47.85  <-- SCF
      6  -1.25986130E+004  2.85723185E+000   6.45448358E-002      48.20  <-- SCF
      7  -1.25873493E+004  2.97138943E+000  -9.38642099E-001      48.69  <-- SCF
      8  -1.25865740E+004  2.68466620E+000  -6.46088797E-002      49.18  <-- SCF
      9  -1.25860669E+004  2.63981497E+000  -4.22578212E-002      49.67  <-- SCF
     10  -1.25859726E+004  2.59592896E+000  -7.85697932E-003      50.17  <-- SCF
     11  -1.25858121E+004  2.55014966E+000  -1.33718816E-002      50.66  <-- SCF
     12  -1.25856999E+004  2.45964462E+000  -9.35112984E-003      51.15  <-- SCF
     13  -1.25856349E+004  2.44685539E+000  -5.41942312E-003      51.62  <-- SCF
     14  -1.25855835E+004  2.41696862E+000  -4.28035440E-003      52.10  <-- SCF
     15  -1.25855455E+004  2.39959394E+000  -3.16755638E-003      52.57  <-- SCF
     16  -1.25855115E+004  2.37631407E+000  -2.83492226E-003      53.03  <-- SCF
     17  -1.25855026E+004  2.36962862E+000  -7.43502595E-004      53.49  <-- SCF
     18  -1.25854944E+004  2.34674426E+000  -6.80153694E-004      53.94  <-- SCF
     19  -1.25854954E+004  2.36005782E+000   8.68491978E-005      54.38  <-- SCF
     20  -1.25854919E+004  2.34040312E+000  -2.90525613E-004      54.84  <-- SCF
     21  -1.25854919E+004  2.34501873E+000  -2.26402605E-006      55.22  <-- SCF
     22  -1.25854917E+004  2.34645846E+000  -2.21901051E-005      55.55  <-- SCF
     23  -1.25854917E+004  2.34587946E+000   6.60592823E-006      55.86  <-- SCF
     24  -1.25854917E+004  2.34548888E+000  -2.76053488E-006      56.16  <-- SCF
------------------------------------------------------------------------ <-- SCF
 
Final energy, E             =  -12585.24304220     eV
Final free energy (E-TS)    =  -12585.49169893     eV
(energies not corrected for finite basis set)
 
NB est. 0K energy (E-0.5TS)      =  -12585.36737057     eV
 
 
 ******************************** Symmetrised Forces ********************************
 *                                                                                  *
 *                           Cartesian components (eV/A)                            *
 * -------------------------------------------------------------------------------- *
 *                         x                    y                    z              *
 *                                                                                  *
 * O               1      0.00000              0.00000              0.00000         *
 * O               2      0.00000              0.00000              0.00000         *
 * O               3      0.00000              0.00000              0.00000         *
 * O               4      0.00000              0.00000              0.00000         *
 * O               5      0.00000              2.13604             -0.00000         *
 * O               6      0.00000             -2.13604              0.00000         *
 * O               7      0.00000              0.75102              0.00000         *
 * O               8      0.00000             -0.75102             -0.00000         *
 * Ti              1      0.00000              0.00000              0.00000         *
 * Ti              2      0.00000              0.00000              0.00000         *
 * Ti              3      0.00000              0.00000              0.00000         *
 * Ti              4      0.00000              0.00000              0.00000         *
 *                                                                                  *
 ************************************************************************************
 
 *********** Symmetrised Stress Tensor ***********
 *                                               *
 *          Cartesian components (GPa)           *
 * --------------------------------------------- *
 *             x             y             z     *
 *                                               *
 *  x      2.504340      0.000000     -0.000000  *
 *  y      0.000000      1.087286      0.000000  *
 *  z     -0.000000      0.000000     11.437109  *
 *                                               *
 *  Pressure:   -5.0096                          *
 *                                               *
 *************************************************
  
 +------------+-------------+-------------+-----------------+ <-- min LBFGS
 |    Step    |   lambda    |   F.delta'  |    enthalpy     | <-- min LBFGS
 +------------+-------------+-------------+-----------------+ <-- min LBFGS
 |  previous  |    0.000000 |    1.418209 |   -12543.431375 | <-- min LBFGS
 | trial step |    1.000000 |    1.023176 |   -12554.482835 | <-- min LBFGS
 |  line step |    2.371709 |    0.569561 |   -12568.781043 | <-- min LBFGS
 |  quad step |    4.094030 |    0.130958 |   -12585.491699 | <-- min LBFGS
 +------------+-------------+-------------+-----------------+ <-- min LBFGS
  
 LBFGS: finished iteration     1 with enthalpy= -1.25854917E+004 eV
  
 +-----------+-----------------+-----------------+------------+-----+ <-- LBFGS
 | Parameter |      value      |    tolerance    |    units   | OK? | <-- LBFGS
 +-----------+-----------------+-----------------+------------+-----+ <-- LBFGS
 |  dE/ion   |   3.505027E+000 |   2.000000E-005 |         eV | No  | <-- LBFGS
 |  |F|max   |   2.136036E+000 |   5.000000E-002 |       eV/A | No  | <-- LBFGS
 |  |dR|max  |   5.666195E-002 |   1.000000E-003 |          A | No  | <-- LBFGS
 |   Smax    |   1.143711E+001 |   1.000000E-001 |        GPa | No  | <-- LBFGS
 +-----------+-----------------+-----------------+------------+-----+ <-- LBFGS
  

================================================================================
 Starting LBFGS iteration          2 ...
================================================================================
  
 +------------+-------------+-------------+-----------------+ <-- min LBFGS
 |    Step    |   lambda    |   F.delta'  |    enthalpy     | <-- min LBFGS
 +------------+-------------+-------------+-----------------+ <-- min LBFGS
 |  previous  |    0.000000 |    0.484587 |   -12585.491699 | <-- min LBFGS
 +------------+-------------+-------------+-----------------+ <-- min LBFGS
  

--------------------------------------------------------------------------------
 LBFGS: starting iteration         2 with trial guess (lambda=  1.000000)
--------------------------------------------------------------------------------
 
+---------------- MEMORY AND SCRATCH DISK ESTIMATES PER PROCESS --------------+
|                                                     Memory          Disk    |
| Model and support data                               77.4 MB         0.0 MB |
| Electronic energy minimisation requirements           9.6 MB         0.0 MB |
| Geometry minimisation requirements                   10.9 MB         0.0 MB |
|                                               ----------------------------- |
| Approx. total storage required per process           97.9 MB         0.0 MB |
|                                                                             |
| Requirements will fluctuate during execution and may exceed these estimates |
+-----------------------------------------------------------------------------+
 
 
                           -------------------------------
                                      Unit Cell
                           -------------------------------
        Real Lattice(A)              Reciprocal Lattice(1/A)
     3.9458880     0.0000000     0.0000000        1.592337457   0.000000000  -0.000000000
     0.0000000     7.9216005     0.0000000        0.000000000   0.793171195   0.000000000
     0.0000000     0.0000000     5.3676950       -0.000000000   0.000000000   1.170555581
 
                       Lattice parameters(A)       Cell Angles
                    a =      3.945888          alpha =   90.000000
                    b =      7.921600          beta  =   90.000000
                    c =      5.367695          gamma =   90.000000
 
                Current cell volume =           167.782059 A**3
 
                           -------------------------------
                                     Cell Contents
                           -------------------------------
 
            xxxxxxxxxxxxxxxxxxxxxxxxxxxxxxxxxxxxxxxxxxxxxxxxxxxxxxxxxxxxxxxxx
            x  Element         Atom        Fractional coordinates of atoms  x
            x                 Number           u          v          w      x
            x---------------------------------------------------------------x
            x  O                 1         0.000000   0.000000   0.000000   x
            x  O                 2         0.500000   0.500000   0.000000   x
            x  O                 3         0.500000   0.000000   0.500000   x
            x  O                 4         0.000000   0.500000   0.500000   x
            x  O                 5         0.500000   0.759330   0.000000   x
            x  O                 6         0.500000   0.240670   0.000000   x
            x  O                 7         0.000000   0.255620   0.000000   x
            x  O                 8         0.000000   0.744380   0.000000   x
            x  Ti                1         0.500000   0.500000   0.000000   x
            x  Ti                2         0.000000   0.000000   0.500000   x
            x  Ti                3         0.000000   0.500000   0.500000   x
            x  Ti                4         0.500000   0.000000   0.000000   x
            xxxxxxxxxxxxxxxxxxxxxxxxxxxxxxxxxxxxxxxxxxxxxxxxxxxxxxxxxxxxxxxxx
 
 
------------------------------------------------------------------------ <-- SCF
SCF loop      Energy           Fermi           Energy gain       Timer   <-- SCF
                               energy          per atom          (sec)   <-- SCF
------------------------------------------------------------------------ <-- SCF
Initial  -1.25842162E+004  0.00000000E+000                        57.70  <-- SCF
      1  -1.25862449E+004  2.29930152E+000   1.69060886E-001      58.04  <-- SCF
      2  -1.25862634E+004  2.29879092E+000   1.54550714E-003      58.57  <-- SCF
      3  -1.26043118E+004  1.38561712E+000   1.50403293E+000      59.08  <-- SCF
      4  -1.25881036E+004  2.50273508E+000  -1.35069116E+000      59.57  <-- SCF
      5  -1.25865573E+004  2.55336872E+000  -1.28858028E-001      60.11  <-- SCF
      6  -1.25857066E+004  2.43500317E+000  -7.08882408E-002      60.60  <-- SCF
      7  -1.25856531E+004  2.35110667E+000  -4.45893396E-003      61.08  <-- SCF
      8  -1.25856797E+004  2.34049205E+000   2.21352574E-003      61.56  <-- SCF
      9  -1.25856555E+004  2.28145165E+000  -2.01479622E-003      62.04  <-- SCF
     10  -1.25856717E+004  2.33043323E+000   1.35364007E-003      62.48  <-- SCF
     11  -1.25856542E+004  2.28486936E+000  -1.46125557E-003      62.96  <-- SCF
     12  -1.25856575E+004  2.29484384E+000   2.79235779E-004      63.41  <-- SCF
     13  -1.25856593E+004  2.30132601E+000   1.48467594E-004      63.83  <-- SCF
     14  -1.25856602E+004  2.28467045E+000   7.64026996E-005      64.24  <-- SCF
     15  -1.25856577E+004  2.29467585E+000  -2.08196819E-004      64.65  <-- SCF
     16  -1.25856585E+004  2.29356751E+000   6.41557357E-005      64.99  <-- SCF
     17  -1.25856585E+004  2.29304257E+000  -3.09866356E-006      65.29  <-- SCF
     18  -1.25856585E+004  2.29300362E+000   6.66149995E-007      65.58  <-- SCF
------------------------------------------------------------------------ <-- SCF
 
Final energy, E             =  -12585.40513542     eV
Final free energy (E-TS)    =  -12585.65847300     eV
(energies not corrected for finite basis set)
 
NB est. 0K energy (E-0.5TS)      =  -12585.53180421     eV
 
 
 ******************************** Symmetrised Forces ********************************
 *                                                                                  *
 *                           Cartesian components (eV/A)                            *
 * -------------------------------------------------------------------------------- *
 *                         x                    y                    z              *
 *                                                                                  *
 * O               1      0.00000              0.00000              0.00000         *
 * O               2      0.00000              0.00000              0.00000         *
 * O               3      0.00000              0.00000              0.00000         *
 * O               4      0.00000              0.00000              0.00000         *
 * O               5     -0.00000              1.79443              0.00000         *
 * O               6      0.00000             -1.79443              0.00000         *
 * O               7      0.00000              0.66121              0.00000         *
 * O               8      0.00000             -0.66121             -0.00000         *
 * Ti              1      0.00000              0.00000              0.00000         *
 * Ti              2      0.00000              0.00000              0.00000         *
 * Ti              3      0.00000              0.00000              0.00000         *
 * Ti              4      0.00000              0.00000              0.00000         *
 *                                                                                  *
 ************************************************************************************
 
 *********** Symmetrised Stress Tensor ***********
 *                                               *
 *          Cartesian components (GPa)           *
 * --------------------------------------------- *
 *             x             y             z     *
 *                                               *
 *  x      4.139718      0.000000      0.000000  *
 *  y      0.000000      2.278447      0.000000  *
 *  z      0.000000      0.000000     11.936415  *
 *                                               *
 *  Pressure:   -6.1182                          *
 *                                               *
 *************************************************
  
 +------------+-------------+-------------+-----------------+ <-- min LBFGS
 |    Step    |   lambda    |   F.delta'  |    enthalpy     | <-- min LBFGS
 +------------+-------------+-------------+-----------------+ <-- min LBFGS
 |  previous  |    0.000000 |    0.484587 |   -12585.491699 | <-- min LBFGS
 | trial step |    1.000000 |    0.433568 |   -12585.658473 | <-- min LBFGS
 +------------+-------------+-------------+-----------------+ <-- min LBFGS
  

--------------------------------------------------------------------------------
 LBFGS: improving iteration         2 with line minimization (lambda=  3.812975)
--------------------------------------------------------------------------------
 
                           -------------------------------
                                      Unit Cell
                           -------------------------------
        Real Lattice(A)              Reciprocal Lattice(1/A)
     4.0162524     0.0000000     0.0000000        1.564439834   0.000000000  -0.000000000
     0.0000000     8.0636534     0.0000000        0.000000000   0.779198335   0.000000000
     0.0000000     0.0000000     5.1724980       -0.000000000   0.000000000   1.214729379
 
                       Lattice parameters(A)       Cell Angles
                    a =      4.016252          alpha =   90.000000
                    b =      8.063653          beta  =   90.000000
                    c =      5.172498          gamma =   90.000000
 
                Current cell volume =           167.514802 A**3
 
                           -------------------------------
                                     Cell Contents
                           -------------------------------
 
            xxxxxxxxxxxxxxxxxxxxxxxxxxxxxxxxxxxxxxxxxxxxxxxxxxxxxxxxxxxxxxxxx
            x  Element         Atom        Fractional coordinates of atoms  x
            x                 Number           u          v          w      x
            x---------------------------------------------------------------x
            x  O                 1         0.000000   0.000000   0.000000   x
            x  O                 2         0.500000   0.500000   0.000000   x
            x  O                 3         0.500000   0.000000   0.500000   x
            x  O                 4         0.000000   0.500000   0.500000   x
            x  O                 5         0.500000   0.765324   0.000000   x
            x  O                 6         0.500000   0.234676   0.000000   x
            x  O                 7         0.000000   0.258454   0.000000   x
            x  O                 8         0.000000   0.741546   0.000000   x
            x  Ti                1         0.500000   0.500000   0.000000   x
            x  Ti                2         0.000000   0.000000   0.500000   x
            x  Ti                3         0.000000   0.500000   0.500000   x
            x  Ti                4         0.500000   0.000000   0.000000   x
            xxxxxxxxxxxxxxxxxxxxxxxxxxxxxxxxxxxxxxxxxxxxxxxxxxxxxxxxxxxxxxxxx
 
 
------------------------------------------------------------------------ <-- SCF
SCF loop      Energy           Fermi           Energy gain       Timer   <-- SCF
                               energy          per atom          (sec)   <-- SCF
------------------------------------------------------------------------ <-- SCF
Initial  -1.25756022E+004  0.00000000E+000                        68.78  <-- SCF
 Warning: There are no empty bands for at least one kpoint and spin; this may
          slow the convergence and/or lead to an inaccurate groundstate.
          If this warning persists, you should consider increasing nextra_bands
          and/or reducing smearing_width in the param file.
          Recommend using nextra_bands of 16 to 30.                             
  
      1  -1.25901675E+004  2.38010061E+000   1.21377197E+000      69.12  <-- SCF
 Warning: There are no empty bands for at least one kpoint and spin; this may
          slow the convergence and/or lead to an inaccurate groundstate.
          If this warning persists, you should consider increasing nextra_bands
          and/or reducing smearing_width in the param file.
          Recommend using nextra_bands of 16 to 30.                             
  
      2  -1.25903543E+004  2.37838828E+000   1.55678631E-002      69.65  <-- SCF
      3  -1.27098921E+004  1.63630359E+000   9.96148183E+000      70.14  <-- SCF
      4  -1.27102707E+004  1.64596540E+000   3.15518476E-002      70.48  <-- SCF
      5  -1.26132130E+004  2.99845504E+000  -8.08813946E+000      70.96  <-- SCF
      6  -1.26134026E+004  2.99879934E+000   1.57976886E-002      71.30  <-- SCF
      7  -1.25986525E+004  2.24393888E+000  -1.22917651E+000      71.79  <-- SCF
      8  -1.25927205E+004  2.56648541E+000  -4.94328865E-001      72.30  <-- SCF
      9  -1.25900106E+004  2.73800818E+000  -2.25826828E-001      72.78  <-- SCF
     10  -1.25867502E+004  2.50733898E+000  -2.71698469E-001      73.26  <-- SCF
     11  -1.25864335E+004  2.49618458E+000  -2.63968583E-002      73.73  <-- SCF
     12  -1.25860702E+004  2.06897493E+000  -3.02684872E-002      74.20  <-- SCF
     13  -1.25856604E+004  2.31480431E+000  -3.41505597E-002      74.69  <-- SCF
     14  -1.25857630E+004  2.31477961E+000   8.54721460E-003      75.15  <-- SCF
     15  -1.25855578E+004  2.22003972E+000  -1.70987124E-002      75.61  <-- SCF
     16  -1.25854755E+004  2.21055290E+000  -6.85676948E-003      76.06  <-- SCF
     17  -1.25855421E+004  2.17038225E+000   5.54735009E-003      76.51  <-- SCF
     18  -1.25856356E+004  2.18778760E+000   7.79320052E-003      76.95  <-- SCF
     19  -1.25854970E+004  2.18430850E+000  -1.15473229E-002      77.39  <-- SCF
     20  -1.25855371E+004  2.17504088E+000   3.33783574E-003      77.82  <-- SCF
     21  -1.25855317E+004  2.16472324E+000  -4.51159409E-004      78.22  <-- SCF
     22  -1.25855292E+004  2.16688434E+000  -2.10105017E-004      78.60  <-- SCF
     23  -1.25855290E+004  2.16921636E+000  -1.76082385E-005      78.92  <-- SCF
     24  -1.25855285E+004  2.16863372E+000  -3.68486370E-005      79.23  <-- SCF
     25  -1.25855284E+004  2.16971137E+000  -7.28424372E-006      79.54  <-- SCF
     26  -1.25855284E+004  2.16889131E+000  -9.34791274E-007      79.83  <-- SCF
------------------------------------------------------------------------ <-- SCF
 
Final energy, E             =  -12585.25973842     eV
Final free energy (E-TS)    =  -12585.52841640     eV
(energies not corrected for finite basis set)
 
NB est. 0K energy (E-0.5TS)      =  -12585.39407741     eV
 
 
 ******************************** Symmetrised Forces ********************************
 *                                                                                  *
 *                           Cartesian components (eV/A)                            *
 * -------------------------------------------------------------------------------- *
 *                         x                    y                    z              *
 *                                                                                  *
 * O               1      0.00000              0.00000              0.00000         *
 * O               2      0.00000              0.00000              0.00000         *
 * O               3      0.00000              0.00000              0.00000         *
 * O               4      0.00000              0.00000              0.00000         *
 * O               5     -0.00000              0.99841              0.00000         *
 * O               6      0.00000             -0.99841              0.00000         *
 * O               7      0.00000              0.50701              0.00000         *
 * O               8     -0.00000             -0.50701              0.00000         *
 * Ti              1      0.00000              0.00000              0.00000         *
 * Ti              2      0.00000              0.00000              0.00000         *
 * Ti              3      0.00000              0.00000              0.00000         *
 * Ti              4      0.00000              0.00000              0.00000         *
 *                                                                                  *
 ************************************************************************************
 
 *********** Symmetrised Stress Tensor ***********
 *                                               *
 *          Cartesian components (GPa)           *
 * --------------------------------------------- *
 *             x             y             z     *
 *                                               *
 *  x      7.706518      0.000000      0.000000  *
 *  y      0.000000      4.558421      0.000000  *
 *  z      0.000000      0.000000     13.697616  *
 *                                               *
 *  Pressure:   -8.6542                          *
 *                                               *
 *************************************************
  
 +------------+-------------+-------------+-----------------+ <-- min LBFGS
 |    Step    |   lambda    |   F.delta'  |    enthalpy     | <-- min LBFGS
 +------------+-------------+-------------+-----------------+ <-- min LBFGS
 |  previous  |    0.000000 |    0.484587 |   -12585.491699 | <-- min LBFGS
 | trial step |    1.000000 |    0.433568 |   -12585.658473 | <-- min LBFGS
 |  line step |    3.812975 |    0.352826 |   -12585.528416 | <-- min LBFGS
 +------------+-------------+-------------+-----------------+ <-- min LBFGS
  

--------------------------------------------------------------------------------
 LBFGS: improving iteration         2 with quad minimization (lambda=  7.625949)
--------------------------------------------------------------------------------
 
                           -------------------------------
                                      Unit Cell
                           -------------------------------
        Real Lattice(A)              Reciprocal Lattice(1/A)
     4.1116311     0.0000000     0.0000000        1.528149086   0.000000000  -0.000000000
     0.0000000     8.2562055     0.0000000        0.000000000   0.761025786   0.000000000
     0.0000000     0.0000000     4.9079094       -0.000000000   0.000000000   1.280216234
 
                       Lattice parameters(A)       Cell Angles
                    a =      4.111631          alpha =   90.000000
                    b =      8.256206          beta  =   90.000000
                    c =      4.907909          gamma =   90.000000
 
                Current cell volume =           166.606207 A**3
 
                           -------------------------------
                                     Cell Contents
                           -------------------------------
 
            xxxxxxxxxxxxxxxxxxxxxxxxxxxxxxxxxxxxxxxxxxxxxxxxxxxxxxxxxxxxxxxxx
            x  Element         Atom        Fractional coordinates of atoms  x
            x                 Number           u          v          w      x
            x---------------------------------------------------------------x
            x  O                 1         0.000000   0.000000   0.000000   x
            x  O                 2         0.500000   0.500000   0.000000   x
            x  O                 3         0.500000   0.000000   0.500000   x
            x  O                 4         0.000000   0.500000   0.500000   x
            x  O                 5         0.500000   0.773448   0.000000   x
            x  O                 6         0.500000   0.226552   0.000000   x
            x  O                 7         0.000000   0.262296   0.000000   x
            x  O                 8         0.000000   0.737704   0.000000   x
            x  Ti                1         0.500000   0.500000   0.000000   x
            x  Ti                2         0.000000   0.000000   0.500000   x
            x  Ti                3         0.000000   0.500000   0.500000   x
            x  Ti                4         0.500000   0.000000   0.000000   x
            xxxxxxxxxxxxxxxxxxxxxxxxxxxxxxxxxxxxxxxxxxxxxxxxxxxxxxxxxxxxxxxxx
 
 
------------------------------------------------------------------------ <-- SCF
SCF loop      Energy           Fermi           Energy gain       Timer   <-- SCF
                               energy          per atom          (sec)   <-- SCF
------------------------------------------------------------------------ <-- SCF
Initial  -1.25650674E+004  0.00000000E+000                        81.38  <-- SCF
 Warning: There are no empty bands for at least one kpoint and spin; this may
          slow the convergence and/or lead to an inaccurate groundstate.
          If this warning persists, you should consider increasing nextra_bands
          and/or reducing smearing_width in the param file.
          Recommend using nextra_bands of 16 to 30.                             
  
      1  -1.25960683E+004  2.57527297E+000   2.58340516E+000      81.71  <-- SCF
 Warning: There are no empty bands for at least one kpoint and spin; this may
          slow the convergence and/or lead to an inaccurate groundstate.
          If this warning persists, you should consider increasing nextra_bands
          and/or reducing smearing_width in the param file.
          Recommend using nextra_bands of 16 to 30.                             
  
      2  -1.25966050E+004  2.57004521E+000   4.47216723E-002      82.22  <-- SCF
      3  -1.29364861E+004  3.86615680E+000   2.83234254E+001      82.75  <-- SCF
      4  -1.29413441E+004  3.63685446E+000   4.04832881E-001      83.10  <-- SCF
      5  -1.27022457E+004  3.72134860E+000  -1.99248600E+001      83.54  <-- SCF
      6  -1.27026896E+004  3.72159584E+000   3.69918913E-002      83.88  <-- SCF
      7  -1.26408666E+004  2.09889271E+000  -5.15192250E+000      84.31  <-- SCF
      8  -1.26409496E+004  2.10138636E+000   6.92111354E-003      84.65  <-- SCF
      9  -1.26241611E+004  2.96427440E+000  -1.39904353E+000      85.09  <-- SCF
     10  -1.26071865E+004  2.71414215E+000  -1.41454623E+000      85.53  <-- SCF
     11  -1.25960963E+004  2.47183950E+000  -9.24190840E-001      86.01  <-- SCF
     12  -1.25898575E+004  2.70259849E+000  -5.19891884E-001      86.49  <-- SCF
     13  -1.25871231E+004  2.58818439E+000  -2.27868318E-001      86.94  <-- SCF
     14  -1.25867667E+004  2.56097595E+000  -2.97038843E-002      87.40  <-- SCF
     15  -1.25854612E+004  2.38745846E+000  -1.08788009E-001      87.84  <-- SCF
     16  -1.25846455E+004  2.24777969E+000  -6.79777985E-002      88.30  <-- SCF
     17  -1.25871435E+004  2.21217684E+000   2.08163953E-001      88.75  <-- SCF
     18  -1.25859146E+004  2.13972620E+000  -1.02406052E-001      89.19  <-- SCF
     19  -1.25855664E+004  2.11149290E+000  -2.90128923E-002      89.65  <-- SCF
     20  -1.25854812E+004  2.09793254E+000  -7.10343314E-003      90.03  <-- SCF
[...]
 * O               2      0.00000              0.00000              0.00000         *
 * O               3      0.00000              0.00000              0.00000         *
 * O               4      0.00000              0.00000              0.00000         *
 * O               5      0.00000              0.09647              0.00000         *
 * O               6      0.00000             -0.09647              0.00000         *
 * O               7     -0.00000              0.47888              0.00000         *
 * O               8      0.00000             -0.47888              0.00000         *
 * Ti              1      0.00000              0.00000              0.00000         *
 * Ti              2      0.00000              0.00000              0.00000         *
 * Ti              3      0.00000              0.00000              0.00000         *
 * Ti              4      0.00000              0.00000              0.00000         *
 *                                                                                  *
 ************************************************************************************
 
 *********** Symmetrised Stress Tensor ***********
 *                                               *
 *          Cartesian components (GPa)           *
 * --------------------------------------------- *
 *             x             y             z     *
 *                                               *
 *  x     -0.559908      0.000000     -0.000000  *
 *  y      0.000000      0.788730      0.000000  *
 *  z     -0.000000      0.000000      0.516028  *
 *                                               *
 *  Pressure:   -0.2483                          *
 *                                               *
 *************************************************
  
 +------------+-------------+-------------+-----------------+ <-- min LBFGS
 |    Step    |   lambda    |   F.delta'  |    enthalpy     | <-- min LBFGS
 +------------+-------------+-------------+-----------------+ <-- min LBFGS
 |  previous  |    0.000000 |    0.150798 |   -12483.064644 | <-- min LBFGS
 | trial step |    1.000000 |    0.118898 |   -12483.266441 | <-- min LBFGS
 |  line step |    4.727230 |    0.006808 |   -12483.912964 | <-- min LBFGS
 +------------+-------------+-------------+-----------------+ <-- min LBFGS
  
 LBFGS: finished iteration     3 with enthalpy= -1.24839130E+004 eV
  
 +-----------+-----------------+-----------------+------------+-----+ <-- LBFGS
 | Parameter |      value      |    tolerance    |    units   | OK? | <-- LBFGS
 +-----------+-----------------+-----------------+------------+-----+ <-- LBFGS
 |  dE/ion   |   7.069334E-002 |   2.000000E-005 |         eV | No  | <-- LBFGS
 |  |F|max   |   4.788830E-001 |   5.000000E-002 |       eV/A | No  | <-- LBFGS
 |  |dR|max  |   2.356110E-002 |   1.000000E-003 |          A | No  | <-- LBFGS
 |   Smax    |   7.887305E-001 |   1.000000E-001 |        GPa | No  | <-- LBFGS
 +-----------+-----------------+-----------------+------------+-----+ <-- LBFGS
  

================================================================================
 Starting LBFGS iteration          4 ...
================================================================================
  
 +------------+-------------+-------------+-----------------+ <-- min LBFGS
 |    Step    |   lambda    |   F.delta'  |    enthalpy     | <-- min LBFGS
 +------------+-------------+-------------+-----------------+ <-- min LBFGS
 |  previous  |    0.000000 |    0.071678 |   -12483.912964 | <-- min LBFGS
 +------------+-------------+-------------+-----------------+ <-- min LBFGS
  

--------------------------------------------------------------------------------
 LBFGS: starting iteration         4 with trial guess (lambda=  1.000000)
--------------------------------------------------------------------------------
 
                           -------------------------------
                                      Unit Cell
                           -------------------------------
        Real Lattice(A)              Reciprocal Lattice(1/A)
     4.0572069     0.0000000     0.0000000        1.548648000   0.000000000  -0.000000000
     0.0000000     7.9379540     0.0000000        0.000000000   0.791537126   0.000000000
     0.0000000     0.0000000     3.9839238       -0.000000000   0.000000000   1.577134897
 
                       Lattice parameters(A)       Cell Angles
                    a =      4.057207          alpha =   90.000000
                    b =      7.937954          beta  =   90.000000
                    c =      3.983924          gamma =   90.000000
 
                Current cell volume =           128.305939 A**3
 
                           -------------------------------
                                     Cell Contents
                           -------------------------------
 
            xxxxxxxxxxxxxxxxxxxxxxxxxxxxxxxxxxxxxxxxxxxxxxxxxxxxxxxxxxxxxxxxx
            x  Element         Atom        Fractional coordinates of atoms  x
            x                 Number           u          v          w      x
            x---------------------------------------------------------------x
            x  O                 1         0.000000   0.000000   0.000000   x
            x  O                 2         0.500000   0.500000   0.000000   x
            x  O                 3         0.500000   0.000000   0.500000   x
            x  O                 4         0.000000   0.500000   0.500000   x
            x  O                 5         0.500000   0.764109   0.000000   x
            x  O                 6         0.500000   0.235891   0.000000   x
            x  O                 7         0.000000   0.311870   0.000000   x
            x  O                 8         0.000000   0.688130   0.000000   x
            x  Ti                1         0.500000   0.500000   0.000000   x
            x  Ti                2         0.000000   0.000000   0.500000   x
            x  Ti                3         0.000000   0.500000   0.500000   x
            x  Ti                4         0.500000   0.000000   0.000000   x
            xxxxxxxxxxxxxxxxxxxxxxxxxxxxxxxxxxxxxxxxxxxxxxxxxxxxxxxxxxxxxxxxx
 
 
------------------------------------------------------------------------ <-- SCF
SCF loop      Energy           Fermi           Energy gain       Timer   <-- SCF
                               energy          per atom          (sec)   <-- SCF
------------------------------------------------------------------------ <-- SCF
Initial  -1.24832064E+004  0.00000000E+000                        72.63  <-- SCF
      1  -1.24835100E+004  3.96801390E+000   2.53003879E-002      72.92  <-- SCF
      2  -1.24835103E+004  3.96799926E+000   2.89300990E-005      73.28  <-- SCF
      3  -1.24929252E+004  4.22702398E+000   7.84572380E-001      73.65  <-- SCF
      4  -1.24832680E+004  3.98617883E+000  -8.04767998E-001      74.01  <-- SCF
      5  -1.24834565E+004  3.96862342E+000   1.57129718E-002      74.37  <-- SCF
      6  -1.24834738E+004  3.96574605E+000   1.43632515E-003      74.73  <-- SCF
      7  -1.24834495E+004  3.94873415E+000  -2.02188370E-003      75.09  <-- SCF
      8  -1.24834498E+004  3.96312052E+000   2.24230152E-005      75.45  <-- SCF
      9  -1.24834470E+004  3.95983481E+000  -2.26570088E-004      75.73  <-- SCF
     10  -1.24834386E+004  3.95572196E+000  -7.07071408E-004      76.07  <-- SCF
     11  -1.24834372E+004  3.95771330E+000  -1.10705317E-004      76.36  <-- SCF
     12  -1.24834361E+004  3.95303916E+000  -9.15414180E-005      76.67  <-- SCF
     13  -1.24834362E+004  3.95320845E+000   7.39491848E-006      76.90  <-- SCF
     14  -1.24834362E+004  3.95328324E+000   4.10722541E-007      77.14  <-- SCF
------------------------------------------------------------------------ <-- SCF
 
Final energy, E             =  -12483.23096761     eV
Final free energy (E-TS)    =  -12483.43622187     eV
(energies not corrected for finite basis set)
 
NB est. 0K energy (E-0.5TS)      =  -12483.33359474     eV
 
 
 ******************************** Symmetrised Forces ********************************
 *                                                                                  *
 *                           Cartesian components (eV/A)                            *
 * -------------------------------------------------------------------------------- *
 *                         x                    y                    z              *
 *                                                                                  *
 * O               1      0.00000              0.00000              0.00000         *
 * O               2      0.00000              0.00000              0.00000         *
 * O               3      0.00000              0.00000              0.00000         *
 * O               4      0.00000              0.00000              0.00000         *
 * O               5      0.00000              0.10567              0.00000         *
 * O               6      0.00000             -0.10567             -0.00000         *
 * O               7      0.00000              0.46820              0.00000         *
 * O               8      0.00000             -0.46820             -0.00000         *
 * Ti              1      0.00000              0.00000              0.00000         *
 * Ti              2      0.00000              0.00000              0.00000         *
 * Ti              3      0.00000              0.00000              0.00000         *
 * Ti              4      0.00000              0.00000              0.00000         *
 *                                                                                  *
 ************************************************************************************
 
 *********** Symmetrised Stress Tensor ***********
 *                                               *
 *          Cartesian components (GPa)           *
 * --------------------------------------------- *
 *             x             y             z     *
 *                                               *
 *  x     -0.817785      0.000000      0.000000  *
 *  y      0.000000      0.615159      0.000000  *
 *  z      0.000000      0.000000      0.403038  *
 *                                               *
 *  Pressure:   -0.0668                          *
 *                                               *
 *************************************************
  
 +------------+-------------+-------------+-----------------+ <-- min LBFGS
 |    Step    |   lambda    |   F.delta'  |    enthalpy     | <-- min LBFGS
 +------------+-------------+-------------+-----------------+ <-- min LBFGS
 |  previous  |    0.000000 |    0.071678 |   -12483.912964 | <-- min LBFGS
 | trial step |    1.000000 |    0.062702 |   -12483.436222 | <-- min LBFGS
 +------------+-------------+-------------+-----------------+ <-- min LBFGS
  

--------------------------------------------------------------------------------
 LBFGS: improving iteration         4 with line minimization (lambda=  7.984861)
--------------------------------------------------------------------------------
 
                           -------------------------------
                                      Unit Cell
                           -------------------------------
        Real Lattice(A)              Reciprocal Lattice(1/A)
     4.0260406     0.0000000     0.0000000        1.560636363   0.000000000  -0.000000000
     0.0000000     7.9065241     0.0000000        0.000000000   0.794683639   0.000000000
     0.0000000     0.0000000     3.9981718       -0.000000000   0.000000000   1.571514599
 
                       Lattice parameters(A)       Cell Angles
                    a =      4.026041          alpha =   90.000000
                    b =      7.906524          beta  =   90.000000
                    c =      3.998172          gamma =   90.000000
 
                Current cell volume =           127.269750 A**3
 
                           -------------------------------
                                     Cell Contents
                           -------------------------------
 
            xxxxxxxxxxxxxxxxxxxxxxxxxxxxxxxxxxxxxxxxxxxxxxxxxxxxxxxxxxxxxxxxx
            x  Element         Atom        Fractional coordinates of atoms  x
            x                 Number           u          v          w      x
            x---------------------------------------------------------------x
            x  O                 1         0.000000   0.000000   0.000000   x
            x  O                 2         0.500000   0.500000   0.000000   x
            x  O                 3         0.500000   0.000000   0.500000   x
            x  O                 4         0.000000   0.500000   0.500000   x
            x  O                 5         0.500000   0.763212   0.000000   x
            x  O                 6         0.500000   0.236788   0.000000   x
            x  O                 7         0.000000   0.314975   0.000000   x
            x  O                 8         0.000000   0.685025   0.000000   x
            x  Ti                1         0.500000   0.500000   0.000000   x
            x  Ti                2         0.000000   0.000000   0.500000   x
            x  Ti                3         0.000000   0.500000   0.500000   x
            x  Ti                4         0.500000   0.000000   0.000000   x
            xxxxxxxxxxxxxxxxxxxxxxxxxxxxxxxxxxxxxxxxxxxxxxxxxxxxxxxxxxxxxxxxx
 
 
------------------------------------------------------------------------ <-- SCF
SCF loop      Energy           Fermi           Energy gain       Timer   <-- SCF
                               energy          per atom          (sec)   <-- SCF
------------------------------------------------------------------------ <-- SCF
Initial  -1.24788172E+004  0.00000000E+000                        78.34  <-- SCF
      1  -1.24811930E+004  4.12370376E+000   1.97982052E-001      78.63  <-- SCF
      2  -1.24812069E+004  4.12393246E+000   1.16344642E-003      79.04  <-- SCF
      3  -1.24991387E+004  4.45108762E+000   1.49431560E+000      79.42  <-- SCF
      4  -1.24812468E+004  4.05834394E+000  -1.49098987E+000      79.78  <-- SCF
      5  -1.24807002E+004  3.96887165E+000  -4.55508431E-002      80.15  <-- SCF
      6  -1.24805552E+004  4.11913972E+000  -1.20822657E-002      80.52  <-- SCF
      7  -1.24803034E+004  4.07319525E+000  -2.09909709E-002      80.89  <-- SCF
      8  -1.24802490E+004  4.11680453E+000  -4.52829903E-003      81.26  <-- SCF
      9  -1.24801855E+004  4.10270000E+000  -5.28994992E-003      81.61  <-- SCF
     10  -1.24801491E+004  4.09785720E+000  -3.04001682E-003      81.98  <-- SCF
     11  -1.24801155E+004  4.09967848E+000  -2.79565113E-003      82.33  <-- SCF
     12  -1.24800661E+004  4.06283193E+000  -4.11711809E-003      82.69  <-- SCF
     13  -1.24800737E+004  4.06606155E+000   6.30996733E-004      83.04  <-- SCF
     14  -1.24800713E+004  4.05848864E+000  -2.00307155E-004      83.38  <-- SCF
     15  -1.24800716E+004  4.06008715E+000   3.08908134E-005      83.71  <-- SCF
     16  -1.24800709E+004  4.05796103E+000  -6.01732173E-005      84.01  <-- SCF
     17  -1.24800711E+004  4.05842508E+000   1.76006767E-005      84.25  <-- SCF
     18  -1.24800711E+004  4.05852328E+000   1.41188753E-006      84.49  <-- SCF
     19  -1.24800711E+004  4.05866000E+000   6.99553015E-008      84.72  <-- SCF
------------------------------------------------------------------------ <-- SCF
 
Final energy, E             =  -12479.86611705     eV
Final free energy (E-TS)    =  -12480.07114987     eV
(energies not corrected for finite basis set)
 
NB est. 0K energy (E-0.5TS)      =  -12479.96863346     eV
 
 
 ******************************** Symmetrised Forces ********************************
 *                                                                                  *
 *                           Cartesian components (eV/A)                            *
 * -------------------------------------------------------------------------------- *
 *                         x                    y                    z              *
 *                                                                                  *
 * O               1      0.00000              0.00000              0.00000         *
 * O               2      0.00000              0.00000              0.00000         *
 * O               3      0.00000              0.00000              0.00000         *
 * O               4      0.00000              0.00000              0.00000         *
 * O               5      0.00000              0.20872              0.00000         *
 * O               6      0.00000             -0.20872              0.00000         *
 * O               7      0.00000              0.40903              0.00000         *
 * O               8      0.00000             -0.40903              0.00000         *
 * Ti              1      0.00000              0.00000              0.00000         *
 * Ti              2      0.00000              0.00000              0.00000         *
 * Ti              3      0.00000              0.00000              0.00000         *
 * Ti              4      0.00000              0.00000              0.00000         *
 *                                                                                  *
 ************************************************************************************
 
 *********** Symmetrised Stress Tensor ***********
 *                                               *
 *          Cartesian components (GPa)           *
 * --------------------------------------------- *
 *             x             y             z     *
 *                                               *
 *  x     -2.910273      0.000000      0.000000  *
 *  y      0.000000     -0.347511      0.000000  *
 *  z      0.000000      0.000000      0.421311  *
 *                                               *
 *  Pressure:    0.9455                          *
 *                                               *
 *************************************************
  
 +------------+-------------+-------------+-----------------+ <-- min LBFGS
 |    Step    |   lambda    |   F.delta'  |    enthalpy     | <-- min LBFGS
 +------------+-------------+-------------+-----------------+ <-- min LBFGS
 |  previous  |    0.000000 |    0.071678 |   -12483.912964 | <-- min LBFGS
 | trial step |    1.000000 |    0.062702 |   -12483.436222 | <-- min LBFGS
 |  line step |    7.984861 |   -0.011085 |   -12480.071150 | <-- min LBFGS
 +------------+-------------+-------------+-----------------+ <-- min LBFGS
  
 LBFGS: finished iteration     4 with enthalpy= -1.24800711E+004 eV
  
 +-----------+-----------------+-----------------+------------+-----+ <-- LBFGS
 | Parameter |      value      |    tolerance    |    units   | OK? | <-- LBFGS
 +-----------+-----------------+-----------------+------------+-----+ <-- LBFGS
 |  dE/ion   |   3.201512E-001 |   2.000000E-005 |         eV | No  | <-- LBFGS
 |  |F|max   |   4.090313E-001 |   5.000000E-002 |       eV/A | No  | <-- LBFGS
 |  |dR|max  |   2.805950E-002 |   1.000000E-003 |          A | No  | <-- LBFGS
 |   Smax    |   2.910273E+000 |   1.000000E-001 |        GPa | No  | <-- LBFGS
 +-----------+-----------------+-----------------+------------+-----+ <-- LBFGS
  

================================================================================
 Starting LBFGS iteration          5 ...
================================================================================
  
 +------------+-------------+-------------+-----------------+ <-- min LBFGS
 |    Step    |   lambda    |   F.delta'  |    enthalpy     | <-- min LBFGS
 +------------+-------------+-------------+-----------------+ <-- min LBFGS
 |  previous  |    0.000000 |    0.159540 |   -12480.071150 | <-- min LBFGS
 +------------+-------------+-------------+-----------------+ <-- min LBFGS
  
