 +-------------------------------------------------+
 |                                                 |
 |      CCC   AA    SSS  TTTTT  EEEEE  PPPP        |
 |     C     A  A  S       T    E      P   P       |
 |     C     AAAA   SS     T    EEE    PPPP        |
 |     C     A  A     S    T    E      P           |
 |      CCC  A  A  SSS     T    EEEEE  P           |
 |                                                 |
 +-------------------------------------------------+
 |                                                 |
 | Welcome to Academic Release CASTEP version 19.1 |          
 | Ab Initio Total Energy Program                  |
 |                                                 |
 | Authors:                                        |
 | M. Segall, M. Probert, C. Pickard, P. Hasnip,   |
 | S. Clark, K. Refson, J. R. Yates, M. Payne      |
 |                                                 |
 | Contributors:                                   |
 | P. Lindan, P. Haynes, J. White, V. Milman,      |
 | N. Govind, M. Gibson, P. Tulip, V. Cocula,      |
 | B. Montanari, D. Quigley, M. Glover,            |
 | L. Bernasconi, A. Perlov, M. Plummer,           |
 | E. McNellis, J. Meyer, J. Gale, D. Jochym       |
 | J. Aarons, B. Walker, R. Gillen, D. Jones       |
 | T. Green, I. J. Bush, C. J. Armstrong,          |
 | E. J. Higgins, E. L. Brown, M. S. McFly,        |
 | J. Wilkins, B-C. Shih, P. J. P. Byrne           |
 |                                                 |
 | Copyright (c) 2000 - 2018                       |
 |                                                 |
 |     Distributed under the terms of an           |
 |     Agreement between the United Kingdom        |
 |     Car-Parrinello (UKCP) Consortium,           |
 |     Daresbury Laboratory and Accelrys, Inc.     |
 |                                                 |
 | Please cite                                     |
 |                                                 |
 |     "First principles methods using CASTEP"     |
 |                                                 |
 |         Zeitschrift fuer Kristallographie       |
 |           220(5-6) pp. 567-570 (2005)           |
 |                                                 |
 | S. J. Clark, M. D. Segall, C. J. Pickard,       |
 | P. J. Hasnip, M. J. Probert, K. Refson,         |
 | M. C. Payne                                     |
 |                                                 |
 |       in all publications arising from          |
 |              your use of CASTEP                 |
 |                                                 |
 +-------------------------------------------------+
 |                                                 |
 |              http://www.castep.org              |
 |                                                 |
 +-------------------------------------------------+
 
 
 
 Compiled for linux_x86_64_ifort17 on Wed, 19 Dec 2018 17:46:20 +0000
 from code version Version unavailable
 Compiler: Intel Fortran 17.0.1.132; Optimisation: fast
 MATHLIBS: Intel MKL(2017.0.1) (LAPACK version 3.6.0)
 FFT Lib : mkl
 Fundamental constants values: CODATA 2014
 
 Run started: Thu, 20 Dec 2018 01:00:33 +0000
 
 Pseudo atomic calculation performed for P 3s2 3p3
 
 Converged in 30 iterations to a total energy of -214.2223 eV
 
 Pseudo atomic calculation performed for K 3s2 3p6 4s1
 
 Converged in 35 iterations to a total energy of -790.3777 eV
 Calculation parallelised over 28 processes.
 Data is distributed by k-point(28-way)

 ************************************ Title ************************************
 

 ***************************** General Parameters ******************************
  
 output verbosity                               : normal  (1)
 write checkpoint data to                       : K3P-OQMD_4786-CollCode25550.check
 type of calculation                            : single point energy
 stress calculation                             : on
 density difference calculation                 : off
 electron localisation func (ELF) calculation   : off
 Hirshfeld analysis                             : off
 unlimited duration calculation
 timing information                             : on
 memory usage estimate                          : on
 write extra output files                       : on
 write final potential to formatted file        : off
 write final density to formatted file          : off
 write structure in CELL formatted file         : on
 write BibTeX reference list                    : off
 write OTFG pseudopotential files               : on
 write electrostatic potential file             : on
 write bands file                               : on
 checkpoint writing                             : off
  
 output         length unit                     : A
 output           mass unit                     : amu
 output           time unit                     : ps
 output         charge unit                     : e
 output           spin unit                     : hbar/2
 output         energy unit                     : eV
 output          force unit                     : eV/A
 output       velocity unit                     : A/ps
 output       pressure unit                     : GPa
 output     inv_length unit                     : 1/A
 output      frequency unit                     : cm-1
 output force constant unit                     : eV/A**2
 output         volume unit                     : A**3
 output   IR intensity unit                     : (D/A)**2/amu
 output         dipole unit                     : D
 output         efield unit                     : eV/A/e
 output        entropy unit                     : J/mol/K
  
 wavefunctions paging                           : none
 random number generator seed                   : randomised (10033643)
 data distribution                              : optimal for this architecture
 optimization strategy                          : maximize speed(+++)

 *********************** Exchange-Correlation Parameters ***********************
  
 using functional                               : Perdew Burke Ernzerhof
 relativistic treatment                         : Koelling-Harmon
 DFT+D: Semi-empirical dispersion correction    : off

 ************************* Pseudopotential Parameters **************************
  
 pseudopotential representation                 : reciprocal space
 <beta|phi> representation                      : reciprocal space
 spin-orbit coupling                            : off

 **************************** Basis Set Parameters *****************************
  
 plane wave basis set cut-off                   :   650.0000   eV
 size of standard grid                          :     1.7500
 size of   fine   gmax                          :    22.8577   1/A
 largest prime factor in FFT                    :          5
 finite basis set correction                    : none

 **************************** Electronic Parameters ****************************
  
 number of  electrons                           :  64.00    
 net charge of system                           :  0.000    
 treating system as non-spin-polarized
 number of bands                                :         45

 ********************* Electronic Minimization Parameters **********************
  
 Method: Treating system as metallic with density mixing treatment of electrons,
         and number of  SD  steps               :          1
         and number of  CG  steps               :          4
  
 total energy / atom convergence tol.           : 0.1000E-09   eV
 eigen-energy convergence tolerance             : 0.1778E-10   eV
 max force / atom convergence tol.              : ignored
 convergence tolerance window                   :          3   cycles
 max. number of SCF cycles                      :        100
 number of fixed-spin iterations                :         10
 smearing scheme                                : Gaussian
 smearing width                                 : 0.2000       eV
 Fermi energy convergence tolerance             : 0.2721E-13   eV
 periodic dipole correction                     : NONE

 ************************** Density Mixing Parameters **************************
  
 density-mixing scheme                          : Broyden
 max. length of mixing history                  :         20
 charge density mixing amplitude                : 0.8000    
 cut-off energy for mixing                      :  650.0       eV
 charge density mixing g-vector                 :  1.500       1/A

 *********************** Population Analysis Parameters ************************
  
 Population analysis with cutoff                :  3.000       A
 Population analysis output                     : summary and pdos components

 ******************************* Developer Code ********************************
  
 xc_bee: true
 xc_bee_rand_seed : 1
 xc_bee_num_trials: 5000

 *******************************************************************************
  
 
                           -------------------------------
                                      Unit Cell
                           -------------------------------
        Real Lattice(A)                      Reciprocal Lattice(1/A)
     5.7234300     0.0000000     0.0000000        1.097800673   0.633956107   0.000008137
    -2.8621991     4.9563748     0.0000000        0.000000000   1.267697787   0.000000256
    -0.0000739    -0.0000020    10.1267340        0.000000000   0.000000000   0.620455253
 
                       Lattice parameters(A)       Cell Angles
                    a =      5.723430          alpha =   89.999801
                    b =      5.723446          beta  =   90.000418
                    c =     10.126734          gamma =  120.005503
 
                       Current cell volume =           287.269762       A**3
                                   density =             1.032261   AMU/A**3
                                           =             1.714109     g/cm^3
 
                           -------------------------------
                                     Cell Contents
                           -------------------------------
                         Total number of ions in cell =    8
                      Total number of species in cell =    2
                        Max number of any one species =    6
 
            xxxxxxxxxxxxxxxxxxxxxxxxxxxxxxxxxxxxxxxxxxxxxxxxxxxxxxxxxxxx
            x  Element    Atom        Fractional coordinates of atoms  x
            x            Number           u          v          w      x
            x----------------------------------------------------------x
            x  P            1         0.333267   0.666722   0.250000   x 
            x  P            2         0.666710   0.333279   0.750000   x 
            x  K            1         0.000025   0.999964   0.750000   x 
            x  K            2         0.333326   0.666663   0.578616   x 
            x  K            3         0.333326   0.666663   0.921384   x 
            x  K            4         0.666651   0.333338   0.421384   x 
            x  K            5         0.666651   0.333338   0.078616   x 
            x  K            6         0.999952   0.000037   0.250000   x 
            xxxxxxxxxxxxxxxxxxxxxxxxxxxxxxxxxxxxxxxxxxxxxxxxxxxxxxxxxxxx
 
 
                         No user defined ionic velocities
 
                           -------------------------------
                                   Details of Species
                           -------------------------------
 
                               Mass of species in AMU
                                    P   30.9737600
                                    K   39.0983000
 
                          Electric Quadrupole Moment (Barn)
                                    P    1.0000000 No Isotope Defined
                                    K    0.0585000 Isotope 39
 
                          Files used for pseudopotentials:
                                    P P_OTF.usp
                                    K K_OTF.usp
 
                           -------------------------------
                              k-Points For BZ Sampling
                           -------------------------------
                       MP grid size for SCF calculation is 11 11  5
                            with an offset of   0.000  0.000  0.000
                       Number of kpoints used =           303
 
                           -------------------------------
                               Symmetry and Constraints
                           -------------------------------
 
                      Maximum deviation from symmetry = 0.188002E-14     ANG
 
                      Number of symmetry operations   =           2
                      Number of ionic constraints     =           3
                      Point group of crystal =     2: Ci, -1, -1
                      Space group of crystal =     2: P-1, -P 1
 
             Set iprint > 1 for details on symmetry rotations/translations
 
                         Centre of mass is constrained
             Set iprint > 1 for details of linear ionic constraints
 
                         Number of cell constraints= 0
                         Cell constraints are:  1 2 3 4 5 6
 
                         External pressure/stress (GPa)
                          0.00000   0.00000   0.00000
                                    0.00000   0.00000
                                              0.00000
  
+---------------- MEMORY AND SCRATCH DISK ESTIMATES PER PROCESS --------------+
|                                                     Memory          Disk    |
| Baseline code, static data and system overhead      339.0 MB         0.0 MB |
| BLAS internal memory storage                          0.0 MB         0.0 MB |
| Model and support data                              420.9 MB         0.0 MB |
| Electronic energy minimisation requirements         234.0 MB         0.0 MB |
| Force calculation requirements                       22.0 MB         0.0 MB |
| Stress calculation requirements                      24.3 MB         0.0 MB |
|                                               ----------------------------- |
| Approx. total storage required per process          993.9 MB         0.0 MB |
|                                                                             |
| Requirements will fluctuate during execution and may exceed these estimates |
+-----------------------------------------------------------------------------+
Calculating total energy with cut-off of  650.000 eV.
------------------------------------------------------------------------ <-- SCF
SCF loop      Energy           Fermi           Energy gain       Timer   <-- SCF
                               energy          per atom          (sec)   <-- SCF
------------------------------------------------------------------------ <-- SCF
Initial  -4.53111274E+003  0.00000000E+000                         3.43  <-- SCF
      1  -4.97829708E+003  5.46392048E+000   5.58980419E+001      32.42  <-- SCF
      2  -5.18710845E+003  2.59733084E+000   2.61014212E+001      53.65  <-- SCF
      3  -5.19369558E+003  2.51988675E+000   8.23390704E-001      80.39  <-- SCF
      4  -5.18985396E+003  3.73151561E+000  -4.80202071E-001     111.05  <-- SCF
      5  -5.18973578E+003  3.43788789E+000  -1.47719730E-002     143.27  <-- SCF
      6  -5.18972112E+003  3.51499044E+000  -1.83234039E-003     172.93  <-- SCF
      7  -5.18972700E+003  3.52884380E+000   7.34295935E-004     201.19  <-- SCF
      8  -5.18972839E+003  3.54315030E+000   1.74066982E-004     237.52  <-- SCF
      9  -5.18972885E+003  3.54818322E+000   5.74245768E-005     262.93  <-- SCF
     10  -5.18972891E+003  3.55152316E+000   8.00521437E-006     294.74  <-- SCF
     11  -5.18972892E+003  3.55148623E+000   5.81249755E-007     332.88  <-- SCF
     12  -5.18972892E+003  3.55177465E+000   3.66772488E-008     362.93  <-- SCF
     13  -5.18972892E+003  3.55172625E+000   6.77560910E-009     396.99  <-- SCF
     14  -5.18972892E+003  3.55171456E+000   5.21750999E-010     421.90  <-- SCF
     15  -5.18972892E+003  3.55170095E+000  -2.12683379E-012     443.44  <-- SCF
     16  -5.18972892E+003  3.55169815E+000   1.23743057E-011     461.27  <-- SCF
------------------------------------------------------------------------ <-- SCF
 
Final energy, E             =  -5189.725349568     eV
Final free energy (E-TS)    =  -5189.728919520     eV
(energies not corrected for finite basis set)
 
NB est. 0K energy (E-0.5TS)      =  -5189.727134544     eV
 
 
 ******************** Symmetrised Forces ********************
 *                                                          *
 *               Cartesian components (eV/A)                *
 * -------------------------------------------------------- *
 *                         x            y            z      *
 *                                                          *
 * P               1      0.00013     -0.00008     -0.00321 *
 * P               2     -0.00013      0.00008      0.00321 *
 * K               1     -0.00002      0.00001      0.00042 *
 * K               2      0.00002     -0.00001     -0.00443 *
 * K               3      0.00001     -0.00001      0.00490 *
 * K               4     -0.00002      0.00001      0.00443 *
 * K               5     -0.00001      0.00001     -0.00490 *
 * K               6      0.00002     -0.00001     -0.00042 *
 *                                                          *
 ************************************************************
 
 *********** Symmetrised Stress Tensor ***********
 *                                               *
 *          Cartesian components (GPa)           *
 * --------------------------------------------- *
 *             x             y             z     *
 *                                               *
 *  x     -0.032249      0.000085     -0.000044  *
 *  y      0.000085     -0.032075     -0.000002  *
 *  z     -0.000044     -0.000002     -0.011620  *
 *                                               *
 *  Pressure:    0.0253                          *
 *                                               *
 *************************************************
 
 Pseudo atomic calculation performed for P 3s2 3p3
 
 Converged in 30 iterations to a total energy of -214.2223 eV
 
 Pseudo atomic calculation performed for K 3s2 3p6 4s1
 
 Converged in 35 iterations to a total energy of -790.3777 eV
Charge spilling parameter for spin component 1 = 0.33%
 
            Orbital Populations       
     Ion    Atom   Orbital             Charge
  -------------------------------------------
      P     1      S                    1.763
      P     1      Px                   1.368
      P     1      Py                   1.368
      P     1      Pz                   1.329
      P     2      S                    1.763
      P     2      Px                   1.368
      P     2      Py                   1.368
      P     2      Pz                   1.329
      K     1      S                    2.009
      K     1      Px                   2.007
      K     1      Py                   2.007
      K     1      Pz                   2.012
      K     1      S                    0.250
      K     1      Px                   0.208
      K     1      Py                   0.208
      K     1      Pz                   0.058
      K     2      S                    2.006
      K     2      Px                   2.014
      K     2      Py                   2.014
      K     2      Pz                   2.008
      K     2      S                    0.359
      K     2      Px                   0.031
      K     2      Py                   0.031
      K     2      Pz                   0.241
      K     3      S                    2.006
      K     3      Px                   2.014
      K     3      Py                   2.014
      K     3      Pz                   2.008
      K     3      S                    0.359
      K     3      Px                   0.031
      K     3      Py                   0.031
      K     3      Pz                   0.241
      K     4      S                    2.006
      K     4      Px                   2.014
      K     4      Py                   2.014
      K     4      Pz                   2.008
      K     4      S                    0.359
      K     4      Px                   0.031
      K     4      Py                   0.031
      K     4      Pz                   0.241
      K     5      S                    2.006
      K     5      Px                   2.014
      K     5      Py                   2.014
      K     5      Pz                   2.008
      K     5      S                    0.359
      K     5      Px                   0.031
      K     5      Py                   0.031
      K     5      Pz                   0.241
      K     6      S                    2.009
      K     6      Px                   2.007
      K     6      Py                   2.007
      K     6      Pz                   2.012
      K     6      S                    0.250
      K     6      Px                   0.208
      K     6      Py                   0.208
      K     6      Pz                   0.058
  -------------------------------------------
                           Total:      64.000
  -------------------------------------------
 
     Atomic Populations (Mulliken)
     -----------------------------
Species          Ion     s      p      d      f     Total  Charge (e)
=====================================================================
  P               1     1.76   4.06   0.00   0.00   5.83    -0.83
  P               2     1.76   4.06   0.00   0.00   5.83    -0.83
  K               1     2.26   6.50   0.00   0.00   8.76     0.24
  K               2     2.37   6.34   0.00   0.00   8.71     0.29
  K               3     2.37   6.34   0.00   0.00   8.71     0.29
  K               4     2.37   6.34   0.00   0.00   8.71     0.29
  K               5     2.37   6.34   0.00   0.00   8.71     0.29
  K               6     2.26   6.50   0.00   0.00   8.76     0.24
=====================================================================
 
                 Bond                   Population      Length (A)
======================================================================
======================================================================
 
     Bayesian Error Estimate (BEE)
     -----------------------------
          Number of BEEF trials:    5000
               BEEF random seed:       1
   Self-consistent total energy:     -190.7190216210 Ha
      Self-consistent xc-energy:      -29.3808426404 Ha
   -----------------------------------------------------------------------------------------------------------
   trial #        BEEF parameters         xc energy (Ha)       xc corr (Ha)       total energy (Ha)           
   -----------------------------------------------------------------------------------------------------------
       1   0.87651   0.94912  -0.36863   -2.7117968324E+01    5.1392162860E+00   -1.8845614731E+02  <-- BEEF
       2   0.95127   0.49788   1.38676   -2.8664895536E+01    4.9272795346E+00   -1.9000307452E+02  <-- BEEF
       3   0.93220   0.69310   0.60979   -2.8321404841E+01    5.1555636005E+00   -1.8965958382E+02  <-- BEEF
       4   1.02841  -0.71849   4.01419   -2.8482443552E+01    6.2685050479E+00   -1.8982062253E+02  <-- BEEF
       5   1.02778   0.17833   2.33146   -3.0186002142E+01    5.3959719195E+00   -1.9152418112E+02  <-- BEEF
       6   1.05225   0.74046   1.35255   -3.1925982388E+01    4.9519482426E+00   -1.9326416137E+02  <-- BEEF
       7   0.93890   0.54894   0.99206   -2.8278754435E+01    5.1942466242E+00   -1.8961693342E+02  <-- BEEF
       8   0.87309  -0.87546   3.12422   -2.3573192355E+01    6.7772358468E+00   -1.8491137134E+02  <-- BEEF
       9   1.03755   0.09830   2.33762   -3.0197044817E+01    5.7583555124E+00   -1.9153522380E+02  <-- BEEF
      10   1.01309  -0.81375   4.24186   -2.7940373507E+01    6.1626234846E+00   -1.8927855249E+02  <-- BEEF
      11   0.95720   0.79686   0.19652   -2.9027737557E+01    5.5737018485E+00   -1.9036591654E+02  <-- BEEF
      12   1.00448   1.17047   0.30088   -3.1401507402E+01    4.4777891678E+00   -1.9273968638E+02  <-- BEEF
      13   0.98528   0.34933   1.57702   -2.9190042246E+01    5.4823151393E+00   -1.9052822123E+02  <-- BEEF
      14   1.06019  -0.39728   3.94001   -3.0205169993E+01    5.4821756458E+00   -1.9154334897E+02  <-- BEEF
      15   1.15730  -1.59678   6.18537   -3.0359564583E+01    7.4686114992E+00   -1.9169774356E+02  <-- BEEF
      16   0.75932   1.24617  -2.10084   -2.4049168603E+01    5.5168119662E+00   -1.8538734758E+02  <-- BEEF
      17   0.99945   0.23278   2.09420   -2.9496101105E+01    5.2944580185E+00   -1.9083428009E+02  <-- BEEF
      18   0.96462   0.76893   0.51799   -2.9315889989E+01    5.2846158795E+00   -1.9065406897E+02  <-- BEEF
      19   0.82793   0.56138  -0.02807   -2.4923641512E+01    5.6489553623E+00   -1.8626182049E+02  <-- BEEF
      20   1.09609   1.23525   0.32279   -3.3925729122E+01    4.9858473324E+00   -1.9526390810E+02  <-- BEEF
      21   1.23472  -1.16641   6.00101   -3.3500627092E+01    6.8285135715E+00   -1.9483880607E+02  <-- BEEF
      22   1.13115  -0.85696   5.00240   -3.1233782628E+01    6.2438857213E+00   -1.9257196161E+02  <-- BEEF
      23   1.16741  -1.07588   5.81659   -3.1962585012E+01    6.1937254649E+00   -1.9330076399E+02  <-- BEEF
      24   1.13329   0.21056   3.03744   -3.3356240552E+01    5.1760528176E+00   -1.9469441953E+02  <-- BEEF
      25   1.05404   0.14659   2.54623   -3.0878417506E+01    5.4297148941E+00   -1.9221659649E+02  <-- BEEF
      26   1.08000   0.98770   0.98599   -3.3157912874E+01    4.8099436060E+00   -1.9449609186E+02  <-- BEEF
      27   0.97783  -1.27926   4.44309   -2.5770648174E+01    7.2613434537E+00   -1.8710882715E+02  <-- BEEF
      28   0.90763   1.24033  -0.89669   -2.8474147880E+01    5.0942340212E+00   -1.8981232686E+02  <-- BEEF
      29   0.74985   1.96078  -2.89316   -2.5493916872E+01    3.9740096950E+00   -1.8683209585E+02  <-- BEEF
      30   1.03205  -0.14490   2.61552   -2.9489620275E+01    6.1982893274E+00   -1.9082779926E+02  <-- BEEF
      31   0.98056   0.01273   1.88910   -2.8242391571E+01    6.2176446385E+00   -1.8958057055E+02  <-- BEEF
      32   0.97392  -0.50655   2.98058   -2.7145887063E+01    6.4989380639E+00   -1.8848406604E+02  <-- BEEF
      33   0.92679   2.02140  -2.48280   -3.0387065612E+01    4.6700754196E+00   -1.9172524459E+02  <-- BEEF
      34   0.91723   0.43452   1.28950   -2.7558428691E+01    5.0056648460E+00   -1.8889660767E+02  <-- BEEF
      35   0.94595   0.53108   1.08002   -2.8454019523E+01    5.1943234946E+00   -1.8979219850E+02  <-- BEEF
      36   1.19502  -1.97531   7.07628   -3.0691862549E+01    7.8986147656E+00   -1.9203004153E+02  <-- BEEF
      37   1.05623   0.42006   1.62352   -3.1223410820E+01    5.7600662545E+00   -1.9256158980E+02  <-- BEEF
      38   0.85867   1.79970  -1.63965   -2.8483318226E+01    3.7088883023E+00   -1.8982149721E+02  <-- BEEF
      39   1.06237  -0.62274   3.73419   -2.9467996033E+01    6.6035835266E+00   -1.9080617501E+02  <-- BEEF
      40   1.06834  -0.32591   3.08495   -3.0135094198E+01    6.4967021721E+00   -1.9147327318E+02  <-- BEEF
      41   0.98351   0.85751   0.67776   -3.0150479195E+01    4.8995631483E+00   -1.9148865818E+02  <-- BEEF
      42   1.01694   1.09738   0.43753   -3.1576358822E+01    4.6542408586E+00   -1.9291453780E+02  <-- BEEF
      43   0.95790   1.61633  -1.24349   -3.0672374568E+01    4.6498145773E+00   -1.9201055355E+02  <-- BEEF
      44   0.83642   1.17901  -1.01270   -2.6422394769E+01    4.8781033497E+00   -1.8776057375E+02  <-- BEEF
      45   1.01204  -1.12116   4.13983   -2.6935583214E+01    7.4063042096E+00   -1.8827376220E+02  <-- BEEF
      46   1.09863  -0.44967   3.81637   -3.0950083240E+01    6.1693368000E+00   -1.9228826222E+02  <-- BEEF
      47   1.06049  -0.13907   3.06478   -3.0484037060E+01    5.7849110411E+00   -1.9182221604E+02  <-- BEEF
      48   1.06813   0.30416   2.44566   -3.1648602572E+01    5.1215676020E+00   -1.9298678155E+02  <-- BEEF
      49   0.99186   0.58988   1.09900   -2.9802338574E+01    5.3426645427E+00   -1.9114051755E+02  <-- BEEF
      50   0.93874   0.05283   1.56639   -2.7119373876E+01    6.1743827808E+00   -1.8845755286E+02  <-- BEEF
      51   0.78543   1.64820  -2.67532   -2.5583527743E+01    5.0951232178E+00   -1.8692170672E+02  <-- BEEF
      52   0.95559  -0.55770   2.83352   -2.6444707486E+01    6.7357662290E+00   -1.8778288647E+02  <-- BEEF
      53   1.07917   0.07837   2.82022   -3.1467158501E+01    5.5022081712E+00   -1.9280533748E+02  <-- BEEF
      54   0.92876   0.64474   0.56400   -2.8063462225E+01    5.3654614109E+00   -1.8940164121E+02  <-- BEEF
      55   0.79359   2.28004  -3.35557   -2.7290870135E+01    3.8418710835E+00   -1.8862904912E+02  <-- BEEF
      56   0.85441   0.99617  -0.95711   -2.6362352442E+01    5.6111840888E+00   -1.8770053142E+02  <-- BEEF
      57   0.93067   0.29059   1.69137   -2.7697978345E+01    5.0726769891E+00   -1.8903615733E+02  <-- BEEF
      58   1.03381   0.62317   1.41314   -3.1143402345E+01    5.1343623876E+00   -1.9248158133E+02  <-- BEEF
      59   0.89419   0.07835   1.41210   -2.5980094085E+01    5.9237225390E+00   -1.8731827307E+02  <-- BEEF
      60   0.90729   0.69472   0.27541   -2.7504457779E+01    5.4102157993E+00   -1.8884263676E+02  <-- BEEF
      61   1.03978   0.01951   2.21341   -2.9946624868E+01    6.2362118468E+00   -1.9128480385E+02  <-- BEEF
      62   0.84411   1.22738  -1.24120   -2.6630747524E+01    5.0899986417E+00   -1.8796892650E+02  <-- BEEF
      63   1.05591   0.12929   2.77457   -3.1004680923E+01    5.1865325531E+00   -1.9234285990E+02  <-- BEEF
      64   0.85772   0.97659  -0.37411   -2.6721629617E+01    4.8893646146E+00   -1.8805980860E+02  <-- BEEF
      65   0.92842   0.11640   1.08969   -2.6775228478E+01    6.5288208695E+00   -1.8811340746E+02  <-- BEEF
      66   1.00231  -0.88721   4.15452   -2.7397794850E+01    6.4596055184E+00   -1.8873597383E+02  <-- BEEF
      67   1.07227  -0.03156   2.80611   -3.0955393014E+01    5.8604008393E+00   -1.9229357199E+02  <-- BEEF
      68   1.05327  -0.94940   4.25486   -2.8558599925E+01    6.9725622814E+00   -1.8989677891E+02  <-- BEEF
      69   1.07128  -1.38661   5.41522   -2.8370897620E+01    7.0687588907E+00   -1.8970907660E+02  <-- BEEF
      70   0.90365  -0.14793   1.88590   -2.5813698382E+01    6.1529979584E+00   -1.8715187736E+02  <-- BEEF
      71   0.88982   1.57348  -1.08334   -2.8913277148E+01    4.0048417430E+00   -1.9025145613E+02  <-- BEEF
      72   0.93048   2.37192  -2.21276   -3.1683888198E+01    3.0567057277E+00   -1.9302206718E+02  <-- BEEF
      73   1.10807  -1.08810   5.37593   -3.0172257065E+01    6.3574421046E+00   -1.9151043605E+02  <-- BEEF
      74   0.92620   0.34490   1.11430   -2.7416909755E+01    5.6511618885E+00   -1.8875508874E+02  <-- BEEF
      75   0.85547   1.25027  -0.81969   -2.7228220921E+01    4.5100863934E+00   -1.8856639990E+02  <-- BEEF
      76   0.99346   1.02070  -0.27775   -3.0343030604E+01    5.7393847594E+00   -1.9168120958E+02  <-- BEEF
      77   0.93329   0.74849   0.11321   -2.8230317511E+01    5.6637526841E+00   -1.8956849649E+02  <-- BEEF
      78   0.75992   0.83583  -1.03052   -2.3449811207E+01    5.4959960155E+00   -1.8478799019E+02  <-- BEEF
      79   0.89040  -0.37870   2.11500   -2.4919312614E+01    6.5513588303E+00   -1.8625749159E+02  <-- BEEF
      80   0.96851   0.34459   1.49473   -2.8704297597E+01    5.4737512791E+00   -1.9004247658E+02  <-- BEEF
      81   0.96933  -0.11463   2.11023   -2.7703838226E+01    6.2711914057E+00   -1.8904201721E+02  <-- BEEF
      82   0.96767  -0.66510   3.86112   -2.7017735849E+01    5.7790274033E+00   -1.8835591483E+02  <-- BEEF
      83   0.93842  -0.00798   1.32487   -2.6790936145E+01    6.7309359981E+00   -1.8812911513E+02  <-- BEEF
      84   1.05545  -0.23278   3.26532   -3.0190855938E+01    5.7982129453E+00   -1.9152903492E+02  <-- BEEF
      85   0.96006  -0.33690   2.82466   -2.7213446190E+01    5.9894256465E+00   -1.8855162517E+02  <-- BEEF
      86   1.02494   1.53715  -0.88008   -3.2339918164E+01    4.9894708757E+00   -1.9367809714E+02  <-- BEEF
      87   1.14829  -0.26662   3.73965   -3.2710460183E+01    6.0358317134E+00   -1.9404863916E+02  <-- BEEF
      88   0.89544   0.69775   0.48261   -2.7332504821E+01    5.0077671585E+00   -1.8867068380E+02  <-- BEEF
      89   1.03576  -0.96496   4.63338   -2.8285681915E+01    6.3482810373E+00   -1.8962386090E+02  <-- BEEF
      90   1.12879  -0.93174   4.78472   -3.0825593413E+01    6.8000718148E+00   -1.9216377239E+02  <-- BEEF
      91   0.95611  -0.24086   1.91006   -2.6877047819E+01    6.8967414463E+00   -1.8821522680E+02  <-- BEEF
      92   0.99185  -1.51467   5.34288   -2.5936631722E+01    6.9626765549E+00   -1.8727481070E+02  <-- BEEF
      93   1.05307  -0.84048   4.35963   -2.8939499643E+01    6.4304988725E+00   -1.9027767862E+02  <-- BEEF
      94   1.08401  -1.23315   4.97630   -2.8900772400E+01    7.2402265904E+00   -1.9023895138E+02  <-- BEEF
      95   0.89433   1.00059  -0.40838   -2.7700108295E+01    5.1597671185E+00   -1.8903828728E+02  <-- BEEF
      96   0.94059   0.25010   1.03306   -2.7450846632E+01    6.2288648954E+00   -1.8878902561E+02  <-- BEEF
      97   1.03134  -0.98198   4.41863   -2.8000127801E+01    6.6746749444E+00   -1.8933830678E+02  <-- BEEF
      98   0.92302   1.05171  -0.47510   -2.8540686161E+01    5.3111824521E+00   -1.8987886514E+02  <-- BEEF
      99   1.00830   0.60717   1.10853   -3.0275625531E+01    5.4056034013E+00   -1.9161380451E+02  <-- BEEF
     100   1.02097   0.15316   1.82085   -2.9645754837E+01    6.1478548741E+00   -1.9098393382E+02  <-- BEEF
     101   0.94785  -0.48621   2.98555   -2.6549855638E+01    6.1986472563E+00   -1.8788803462E+02  <-- BEEF
     102   1.23479  -0.71246   5.23871   -3.4423690017E+01    6.2641647420E+00   -1.9576186900E+02  <-- BEEF
     103   0.91755   0.44738   0.68637   -2.7259408404E+01    5.8106882437E+00   -1.8859758738E+02  <-- BEEF
     104   0.86736   1.29396  -1.28635   -2.7392306783E+01    5.1094296830E+00   -1.8873048576E+02  <-- BEEF
     105   0.96637   2.37131  -2.69928   -3.2311386990E+01    4.0462304064E+00   -1.9364956597E+02  <-- BEEF
     106   1.00341   0.23949   2.28936   -2.9728061816E+01    5.0289945168E+00   -1.9106624080E+02  <-- BEEF
     107   0.85053  -0.75067   3.02112   -2.3316648774E+01    6.2818427862E+00   -1.8465482775E+02  <-- BEEF
     108   0.77757  -0.06496   0.80464   -2.2252562266E+01    6.3119367339E+00   -1.8359074125E+02  <-- BEEF
     109   1.05067   0.11442   2.05083   -3.0413035166E+01    6.2144705032E+00   -1.9175121415E+02  <-- BEEF
     110   0.97914   0.07942   1.71645   -2.8306948898E+01    6.2079777060E+00   -1.8964512788E+02  <-- BEEF
     111   0.81394   0.51470  -0.16740   -2.4350214384E+01    5.8954356340E+00   -1.8568839336E+02  <-- BEEF
     112   0.92959   1.69202  -1.57105   -2.9994914684E+01    4.5989745734E+00   -1.9133309366E+02  <-- BEEF
     113   1.23906  -1.70883   6.95411   -3.2533477166E+01    7.4806370816E+00   -1.9387165615E+02  <-- BEEF
     114   0.85572   1.75206  -2.26388   -2.7908578573E+01    4.7343364822E+00   -1.8924675755E+02  <-- BEEF
     115   1.12260  -1.15502   5.57697   -3.0454811477E+01    6.4384863457E+00   -1.9179299046E+02  <-- BEEF
     116   0.95985   0.27167   1.66305   -2.8363609116E+01    5.4269410256E+00   -1.8970178810E+02  <-- BEEF
     117   0.89519   1.36493  -0.81184   -2.8580761117E+01    4.4204157211E+00   -1.8991894010E+02  <-- BEEF
     118   0.99863   0.34914   1.66800   -2.9579323102E+01    5.4675547654E+00   -1.9091750208E+02  <-- BEEF
     119   1.17126  -1.15782   5.83966   -3.1828074892E+01    6.4892996225E+00   -1.9316625387E+02  <-- BEEF
     120   0.99712  -1.10392   3.58220   -2.6290252200E+01    8.0030005619E+00   -1.8762843118E+02  <-- BEEF
     121   1.03737   0.88830   0.91222   -3.1739614039E+01    4.9127985522E+00   -1.9307779302E+02  <-- BEEF
     122   0.85132   1.97550  -2.38115   -2.8398384147E+01    4.0561309514E+00   -1.8973656313E+02  <-- BEEF
     123   1.01439  -0.49642   3.71664   -2.8621881425E+01    5.7679288505E+00   -1.8996006041E+02  <-- BEEF
     124   1.23262  -0.08947   3.72228   -3.5364155380E+01    6.1324090513E+00   -1.9670233436E+02  <-- BEEF
     125   0.97627   0.38124   1.26825   -2.8880735625E+01    5.7257609714E+00   -1.9021891461E+02  <-- BEEF
     126   1.11006  -0.72971   4.00263   -3.0508184141E+01    7.0138967697E+00   -1.9184636312E+02  <-- BEEF
     127   0.95242   0.55625   1.22930   -2.8778440130E+01    4.9479903459E+00   -1.9011661911E+02  <-- BEEF
     128   0.95596  -0.31477   2.62405   -2.7061118692E+01    6.1573606693E+00   -1.8839929767E+02  <-- BEEF
     129   1.06170  -1.54567   5.35407   -2.7617641770E+01    7.6478747867E+00   -1.8895582075E+02  <-- BEEF
     130   1.14099  -0.90433   5.07585   -3.1383129472E+01    6.3944258028E+00   -1.9272130845E+02  <-- BEEF
     131   0.95760   1.33398  -0.24066   -3.0394357921E+01    4.2546305153E+00   -1.9173253690E+02  <-- BEEF
     132   1.13750  -0.95843   5.11355   -3.1154576014E+01    6.5070943235E+00   -1.9249275500E+02  <-- BEEF
     133   0.93609   0.44250   1.09656   -2.7948982505E+01    5.4074475698E+00   -1.8928716149E+02  <-- BEEF
     134   0.86540   0.00396   1.27703   -2.4951754990E+01    6.1393352187E+00   -1.8628993397E+02  <-- BEEF
     135   1.05787  -0.91954   4.41339   -2.8855186403E+01    6.6805784728E+00   -1.9019336538E+02  <-- BEEF
     136   0.93707  -0.14223   2.03529   -2.6762030232E+01    6.2040829314E+00   -1.8810020921E+02  <-- BEEF
     137   0.94654  -0.20141   2.14217   -2.6885780685E+01    6.3470612409E+00   -1.8822395967E+02  <-- BEEF
     138   1.12189   0.77227   1.26342   -3.3732306690E+01    5.5500418312E+00   -1.9507048567E+02  <-- BEEF
     139   1.05188   0.28476   2.01323   -3.0931653097E+01    5.6630563883E+00   -1.9226983208E+02  <-- BEEF
     140   1.00616  -0.62030   3.39345   -2.7857770709E+01    6.6001895029E+00   -1.8919594969E+02  <-- BEEF
     141   1.01897   1.64278  -0.70234   -3.2606622610E+01    4.3079053634E+00   -1.9394480159E+02  <-- BEEF
     142   0.91666   0.91230   0.30038   -2.8406731239E+01    4.6691682397E+00   -1.8974491022E+02  <-- BEEF
     143   0.80410   1.34374  -1.43959   -2.5853006348E+01    4.6119822067E+00   -1.8719118533E+02  <-- BEEF
     144   1.07326  -0.10690   3.06831   -3.0905209250E+01    5.7715221513E+00   -1.9224338823E+02  <-- BEEF
     145   1.02398  -0.11623   2.22475   -2.9147426548E+01    6.5767256540E+00   -1.9048560553E+02  <-- BEEF
     146   1.07406   0.03215   3.07046   -3.1342728314E+01    5.2736088874E+00   -1.9268090729E+02  <-- BEEF
     147   0.91518   1.31655  -1.09283   -2.8780697093E+01    5.1589144770E+00   -1.9011887607E+02  <-- BEEF
     148   1.23701   0.09440   3.68394   -3.6003471636E+01    5.5601096150E+00   -1.9734165062E+02  <-- BEEF
     149   0.83211   0.15103   1.11585   -2.4457155375E+01    5.5548631068E+00   -1.8579533436E+02  <-- BEEF
     150   0.77849   1.61712  -2.61397   -2.5350095457E+01    5.0623714119E+00   -1.8668827444E+02  <-- BEEF
     151   1.08670  -0.71424   4.35100   -3.0162957872E+01    6.2708041261E+00   -1.9150113685E+02  <-- BEEF
     152   0.99450   1.03636  -0.19319   -3.0464733223E+01    5.5726674438E+00   -1.9180291220E+02  <-- BEEF
     153   1.01108   0.04785   2.16869   -2.9279652007E+01    5.9548404584E+00   -1.9061783099E+02  <-- BEEF
     154   1.11872   0.14202   2.71879   -3.2599950731E+01    5.7488119730E+00   -1.9393812971E+02  <-- BEEF
     155   0.89022   0.48045   0.93999   -2.6812130846E+01    5.1039735175E+00   -1.8815030983E+02  <-- BEEF
     156   0.94851   1.10831  -0.04484   -2.9601274203E+01    4.7164787914E+00   -1.9093945318E+02  <-- BEEF
     157   0.87742   0.47528   0.23136   -2.6067039155E+01    6.0119123645E+00   -1.8740521814E+02  <-- BEEF
     158   0.84349   0.72932   0.25594   -2.5982572506E+01    4.7747076692E+00   -1.8732075149E+02  <-- BEEF
     159   1.04074  -0.75846   3.65318   -2.8468179307E+01    7.0247614693E+00   -1.8980635829E+02  <-- BEEF
     160   1.04679  -0.09625   2.83790   -3.0135419685E+01    5.8341290611E+00   -1.9147359867E+02  <-- BEEF
     161   1.03024   0.52924   1.29787   -3.0705994743E+01    5.6053275831E+00   -1.9204417372E+02  <-- BEEF
     162   1.10455   0.60818   2.18539   -3.3330697111E+01    4.6982885900E+00   -1.9466887609E+02  <-- BEEF
     163   1.12516   0.49912   2.22481   -3.3548398685E+01    5.2100517068E+00   -1.9488657767E+02  <-- BEEF
     164   0.99452  -0.92372   4.03942   -2.7025388154E+01    6.6875467984E+00   -1.8836356713E+02  <-- BEEF
     165   1.03464  -0.19234   2.23128   -2.9192985427E+01    6.9319219828E+00   -1.9053116441E+02  <-- BEEF
     166   0.94114  -0.52360   2.70838   -2.6109542155E+01    6.6670281837E+00   -1.8744772114E+02  <-- BEEF
     167   0.98191  -0.17711   2.32371   -2.7957313266E+01    6.3021842312E+00   -1.8929549225E+02  <-- BEEF
     168   0.97350  -0.32146   2.67004   -2.7510993907E+01    6.2646487934E+00   -1.8884917289E+02  <-- BEEF
     169   1.07037  -0.42542   3.30109   -3.0012518160E+01    6.5686650981E+00   -1.9135069714E+02  <-- BEEF
     170   1.00304  -0.28649   3.04745   -2.8579365863E+01    5.8565826983E+00   -1.8991754484E+02  <-- BEEF
     171   0.92260   0.83893   0.27155   -2.8320979952E+01    5.0244863689E+00   -1.8965915893E+02  <-- BEEF
     172   1.04876  -0.47029   3.42712   -2.9403727996E+01    6.3709110570E+00   -1.9074190698E+02  <-- BEEF
     173   1.15817  -0.64135   4.85112   -3.2475793107E+01    5.9068568979E+00   -1.9381397209E+02  <-- BEEF
     174   1.07542  -0.99480   4.71452   -2.9246453251E+01    6.6762675599E+00   -1.9058463223E+02  <-- BEEF
     175   0.97580  -0.87800   3.47172   -2.6363554414E+01    7.1636556083E+00   -1.8770173339E+02  <-- BEEF
     176   0.97992  -0.08414   2.02597   -2.8014738776E+01    6.3690949480E+00   -1.8935291776E+02  <-- BEEF
     177   0.88329   2.03030  -1.88359   -2.9656327980E+01    3.4278795216E+00   -1.9099450696E+02  <-- BEEF
     178   1.07702  -0.97568   4.71421   -2.9344025051E+01    6.6212493675E+00   -1.9068220403E+02  <-- BEEF
     179   0.98821   1.32224  -0.23289   -3.1138306424E+01    4.5442342746E+00   -1.9247648540E+02  <-- BEEF
     180   1.04536   0.13047   2.43974   -3.0549599817E+01    5.5645024359E+00   -1.9188777880E+02  <-- BEEF
     181   1.07060  -0.70631   3.80200   -2.9465018171E+01    6.8790718511E+00   -1.9080319715E+02  <-- BEEF
     182   1.06295  -0.05061   2.53905   -3.0509716010E+01    6.2263526132E+00   -1.9184789499E+02  <-- BEEF
     183   0.97399  -0.16660   2.32351   -2.7788257844E+01    6.1977894947E+00   -1.8912643682E+02  <-- BEEF
     184   1.07539   0.24266   2.69988   -3.1793947184E+01    5.0469258848E+00   -1.9313212616E+02  <-- BEEF
     185   1.02755  -0.12809   2.80397   -2.9533960961E+01    5.8344842644E+00   -1.9087213994E+02  <-- BEEF
     186   1.05728   0.52439   1.76332   -3.1642201337E+01    5.1958252664E+00   -1.9298038032E+02  <-- BEEF
     187   0.89711   0.73876  -0.33884   -2.7026931336E+01    6.0298968420E+00   -1.8836511032E+02  <-- BEEF
     188   1.02122  -0.20702   2.71095   -2.9084466635E+01    6.1967901746E+00   -1.9042264562E+02  <-- BEEF
     189   1.11289  -0.27167   3.51596   -3.1671590270E+01    6.0702877061E+00   -1.9300976925E+02  <-- BEEF
     190   1.12247  -0.30169   3.70602   -3.1933017969E+01    5.9919342137E+00   -1.9327119695E+02  <-- BEEF
     191   1.07412  -0.87265   4.21367   -2.9292102091E+01    6.9294753409E+00   -1.9063028107E+02  <-- BEEF
     192   0.93530   1.43644  -0.38167   -3.0055817014E+01    3.8953260825E+00   -1.9139399599E+02  <-- BEEF
     193   0.96826  -0.15227   2.22918   -2.7632302508E+01    6.2305647366E+00   -1.8897048149E+02  <-- BEEF
     194   0.93768  -0.30032   2.46985   -2.6553443446E+01    6.1680713404E+00   -1.8789162243E+02  <-- BEEF
     195   1.17450  -0.73620   4.37369   -3.2331868099E+01    7.0586483444E+00   -1.9367004708E+02  <-- BEEF
     196   0.87554   0.34472   0.12948   -2.5570423907E+01    6.6104277287E+00   -1.8690860289E+02  <-- BEEF
     197   1.14166  -0.81926   4.81473   -3.1505113724E+01    6.4606657119E+00   -1.9284329270E+02  <-- BEEF
     198   1.04347  -0.11288   2.52187   -2.9820641308E+01    6.3108577753E+00   -1.9115882029E+02  <-- BEEF
     199   0.89320   0.25200   0.62524   -2.6023712629E+01    6.3961650004E+00   -1.8736189161E+02  <-- BEEF
     200   0.80677   0.44421   0.05103   -2.4083017853E+01    5.7818730093E+00   -1.8542119683E+02  <-- BEEF
     201   0.97434   1.39206  -0.39142   -3.0905240882E+01    4.3984045815E+00   -1.9224341986E+02  <-- BEEF
     202   1.01015   0.09227   2.33219   -2.9482675832E+01    5.5566730098E+00   -1.9082085481E+02  <-- BEEF
     203   0.95714  -0.18915   2.34062   -2.7304284331E+01    6.1129701158E+00   -1.8864246331E+02  <-- BEEF
     204   0.95328   1.35299  -0.17843   -3.0377680759E+01    4.0620593068E+00   -1.9171585974E+02  <-- BEEF
     205   0.92528   0.87072  -0.02444   -2.8314528539E+01    5.3490244020E+00   -1.8965270752E+02  <-- BEEF
     206   0.86149   1.13854  -0.81045   -2.7051425853E+01    4.9508633675E+00   -1.8838960483E+02  <-- BEEF
     207   0.87175   0.03659   1.38499   -2.5271776394E+01    5.9232475881E+00   -1.8660995537E+02  <-- BEEF
     208   0.96872  -1.04592   4.22745   -2.6114883221E+01    6.6462408897E+00   -1.8745306220E+02  <-- BEEF
     209   1.02271  -0.54773   3.79863   -2.8725775118E+01    5.9078101686E+00   -1.9006395410E+02  <-- BEEF
     210   1.10285  -0.09332   2.63979   -3.1449219620E+01    6.5751799741E+00   -1.9278739860E+02  <-- BEEF
     211   1.12237  -1.00862   5.12828   -3.0630168031E+01    6.5399130853E+00   -1.9196834701E+02  <-- BEEF
     212   0.82461   0.91331  -0.95430   -2.5362171321E+01    5.6548335732E+00   -1.8670035030E+02  <-- BEEF
     213   0.88910   0.54276   0.36534   -2.6641191542E+01    5.6784651027E+00   -1.8797937052E+02  <-- BEEF
     214   0.91782   2.11635  -2.22373   -3.0592680759E+01    3.8873580553E+00   -1.9193085974E+02  <-- BEEF
     215   0.81728   0.70203  -0.08759   -2.5041019077E+01    5.1355220920E+00   -1.8637919806E+02  <-- BEEF
     216   1.01093   0.36744   1.48971   -2.9843140447E+01    5.7561643016E+00   -1.9118131943E+02  <-- BEEF
     217   0.96884  -0.11456   2.89845   -2.8143127637E+01    5.1575567571E+00   -1.8948130662E+02  <-- BEEF
     218   1.00086   0.92446   0.27012   -3.0556252419E+01    5.3780382564E+00   -1.9189443140E+02  <-- BEEF
     219   1.07181  -0.68805   3.77660   -2.9535648528E+01    6.8591120207E+00   -1.9087382751E+02  <-- BEEF
     220   0.98180   0.77958   0.52639   -2.9787481849E+01    5.3793563426E+00   -1.9112566083E+02  <-- BEEF
     221   1.16102  -1.27006   5.92968   -3.1284738473E+01    6.6811745173E+00   -1.9262291745E+02  <-- BEEF
     222   0.98929   1.86098  -1.56179   -3.2016110264E+01    4.4798792613E+00   -1.9335428924E+02  <-- BEEF
     223   1.05733  -0.88789   4.14181   -2.8780526471E+01    6.9439679584E+00   -1.9011870545E+02  <-- BEEF
     224   0.91567  -0.31820   2.06146   -2.5708982986E+01    6.6215643598E+00   -1.8704716197E+02  <-- BEEF
     225   1.13222  -0.91064   5.22016   -3.1225052649E+01    6.1401574682E+00   -1.9256323163E+02  <-- BEEF
     226   1.10223  -1.17908   5.17169   -2.9635355314E+01    6.9238383525E+00   -1.9097353429E+02  <-- BEEF
     227   0.97933  -0.15598   2.29673   -2.7939834317E+01    6.2421962592E+00   -1.8927801330E+02  <-- BEEF
     228   1.17524  -0.75169   4.74487   -3.2516829625E+01    6.5984290559E+00   -1.9385500861E+02  <-- BEEF
     229   1.01343   0.98666   0.47856   -3.1179851659E+01    4.9663430839E+00   -1.9251803064E+02  <-- BEEF
     230   1.04938  -0.63266   3.95952   -2.9238570295E+01    6.2127110533E+00   -1.9057674928E+02  <-- BEEF
     231   1.01808   1.35322  -0.24724   -3.1978490373E+01    4.7045665453E+00   -1.9331666935E+02  <-- BEEF
     232   0.87664   1.55321  -1.62391   -2.8209589636E+01    4.7275304214E+00   -1.8954776862E+02  <-- BEEF
     233   0.95155   0.97000   0.61169   -2.9640553159E+01    4.3171850155E+00   -1.9097873214E+02  <-- BEEF
     234   0.99413  -0.01639   2.42787   -2.8807050485E+01    5.6789184256E+00   -1.9014522947E+02  <-- BEEF
     235   1.03791  -0.99351   3.91584   -2.7843667801E+01    7.4791626154E+00   -1.8918184678E+02  <-- BEEF
     236   1.12880  -0.16506   3.58837   -3.2434535610E+01    5.7179915864E+00   -1.9377271459E+02  <-- BEEF
     237   1.19092  -0.87760   5.12967   -3.2757353961E+01    6.6433821444E+00   -1.9409553294E+02  <-- BEEF
     238   1.01012  -0.53695   3.97969   -2.8543114392E+01    5.5078963584E+00   -1.8988129337E+02  <-- BEEF
     239   0.91054   0.79537  -0.13755   -2.7651270074E+01    5.6556509506E+00   -1.8898944905E+02  <-- BEEF
     240   1.01316   0.39223   1.48777   -2.9972664709E+01    5.6882884634E+00   -1.9131084369E+02  <-- BEEF
     241   0.99478  -0.11433   2.28162   -2.8446889476E+01    6.2435657480E+00   -1.8978506846E+02  <-- BEEF
     242   0.93833   0.08525   1.68334   -2.7272875356E+01    5.8893561780E+00   -1.8861105434E+02  <-- BEEF
     243   1.07329   0.67166   1.39284   -3.2275693354E+01    5.3209294623E+00   -1.9361387234E+02  <-- BEEF
     244   0.94293   1.04270   0.10719   -2.9350921152E+01    4.6921575562E+00   -1.9068910013E+02  <-- BEEF
     245   0.92767   0.48635   1.31188   -2.7990331586E+01    4.8751830811E+00   -1.8932851057E+02  <-- BEEF
     246   0.98869   0.59951   0.59922   -2.9464752946E+01    5.9845627473E+00   -1.9080293193E+02  <-- BEEF
     247   0.91720   1.19072  -0.56253   -2.8759250219E+01    4.8836622979E+00   -1.9009742920E+02  <-- BEEF
     248   0.98536  -0.00277   2.17533   -2.8481179643E+01    5.9111672816E+00   -1.8981935862E+02  <-- BEEF
     249   0.98385   0.06436   1.70607   -2.8375095759E+01    6.3166410903E+00   -1.8971327474E+02  <-- BEEF
     250   0.94925   1.44536  -1.16497   -2.9986839648E+01    5.0830803200E+00   -1.9132501863E+02  <-- BEEF
     251   1.02775  -0.59514   3.53019   -2.8557644846E+01    6.4990648002E+00   -1.8989582383E+02  <-- BEEF
     252   0.98820  -0.02482   2.07295   -2.8428420977E+01    6.1587437394E+00   -1.8976659996E+02  <-- BEEF
     253   0.93289   1.37045  -0.81818   -2.9547401148E+01    4.7273375497E+00   -1.9088558013E+02  <-- BEEF
     254   0.94412  -0.76007   3.41725   -2.5883582776E+01    6.5476723388E+00   -1.8722176176E+02  <-- BEEF
     255   0.92876   0.80440   0.07244   -2.8259591635E+01    5.4812294400E+00   -1.8959777062E+02  <-- BEEF
     256   0.96527   0.67147   0.99867   -2.9316319400E+01    4.9653235519E+00   -1.9065449838E+02  <-- BEEF
     257   0.95139   0.26721   1.34229   -2.7952364446E+01    5.8230333601E+00   -1.8929054343E+02  <-- BEEF
     258   0.94504   1.03228  -0.25793   -2.9163993513E+01    5.2613441571E+00   -1.9050217249E+02  <-- BEEF
     259   1.04488  -0.19318   3.32062   -3.0073604616E+01    5.4884158006E+00   -1.9141178360E+02  <-- BEEF
     260   0.97331   0.05776   2.40684   -2.8490096895E+01    5.2654075294E+00   -1.8982827588E+02  <-- BEEF
     261   0.96959   0.18827   1.42751   -2.8225518002E+01    6.1414194866E+00   -1.8956369698E+02  <-- BEEF
     262   1.00267   1.01175   0.74889   -3.1137428102E+01    4.4046265229E+00   -1.9247560708E+02  <-- BEEF
     263   0.99239  -1.07039   4.76597   -2.6948882608E+01    6.1762591758E+00   -1.8828706159E+02  <-- BEEF
     264   1.03804  -0.53451   3.79174   -2.9149320402E+01    5.9991213611E+00   -1.9048749938E+02  <-- BEEF
     265   0.93131   0.71450   0.91017   -2.8534986807E+01    4.6481804120E+00   -1.8987316579E+02  <-- BEEF
     266   1.07672   0.44768   2.46584   -3.2307038029E+01    4.6479583808E+00   -1.9364521701E+02  <-- BEEF
     267   1.09872  -0.72688   3.92004   -3.0182605356E+01    7.0243231906E+00   -1.9152078434E+02  <-- BEEF
     268   1.05042   0.48958   1.74484   -3.1354003094E+01    5.2896024451E+00   -1.9269218208E+02  <-- BEEF
     269   0.99675   0.89180   0.33591   -3.0392381061E+01    5.3686141214E+00   -1.9173056004E+02  <-- BEEF
     270   0.93131   0.69570   0.99747   -2.8528756716E+01    4.5931487248E+00   -1.8986693570E+02  <-- BEEF
     271   0.91448   1.92734  -2.33659   -2.9877911405E+01    4.6998261593E+00   -1.9121609039E+02  <-- BEEF
     272   0.95853   1.96154  -1.60884   -3.1511667547E+01    3.9238793550E+00   -1.9284984653E+02  <-- BEEF
     273   1.03615   0.22439   1.88120   -3.0277523840E+01    5.9340052488E+00   -1.9161570282E+02  <-- BEEF
     274   1.07459  -0.12968   2.95773   -3.0807440044E+01    6.0205665039E+00   -1.9214561902E+02  <-- BEEF
     275   0.91208   0.17780   1.66839   -2.6877073718E+01    5.3551541815E+00   -1.8821525270E+02  <-- BEEF
     276   1.08723   0.18114   2.73299   -3.1928366664E+01    5.3221166243E+00   -1.9326654564E+02  <-- BEEF
     277   1.06653   0.12918   2.41515   -3.1067253699E+01    5.7823196843E+00   -1.9240543268E+02  <-- BEEF
     278   0.89521   0.38309   0.73901   -2.6531922924E+01    5.7800934167E+00   -1.8787010190E+02  <-- BEEF
     279   0.88246   1.61951  -1.70775   -2.8506987963E+01    4.6553510908E+00   -1.8984516694E+02  <-- BEEF
     280   1.07823  -0.16839   3.09627   -3.0863069446E+01    5.9959593692E+00   -1.9220124843E+02  <-- BEEF
     281   0.89685  -0.31369   2.49793   -2.5496509241E+01    5.8324151281E+00   -1.8683468822E+02  <-- BEEF
     282   1.01526   0.24206   1.65323   -2.9671254661E+01    6.0148524270E+00   -1.9100943364E+02  <-- BEEF
     283   1.02254   0.81564   0.89086   -3.1134819308E+01    5.0798912326E+00   -1.9247299829E+02  <-- BEEF
     284   0.99386   0.43326   1.22760   -2.9458135250E+01    5.7436106482E+00   -1.9079631423E+02  <-- BEEF
     285   1.04924   0.22203   1.98866   -3.0663293294E+01    5.9016922799E+00   -1.9200147227E+02  <-- BEEF
     286   0.93311  -0.19400   2.63329   -2.6849402644E+01    5.5159372512E+00   -1.8818758162E+02  <-- BEEF
     287   0.96343  -0.27725   2.72440   -2.7419626487E+01    5.9437500611E+00   -1.8875780547E+02  <-- BEEF
     288   1.11759   0.09717   3.30621   -3.2773851613E+01    5.0745221301E+00   -1.9411203059E+02  <-- BEEF
     289   1.01180   2.25634  -1.56364   -3.3767530454E+01    3.2460645192E+00   -1.9510570943E+02  <-- BEEF
     290   0.95994   0.18647   1.74635   -2.8158666205E+01    5.6178334276E+00   -1.8949684519E+02  <-- BEEF
     291   1.04570   0.04606   2.30850   -3.0230376113E+01    6.0565303573E+00   -1.9156855509E+02  <-- BEEF
     292   0.97846   0.08795   2.18099   -2.8581442980E+01    5.5178068453E+00   -1.8991962196E+02  <-- BEEF
     293   0.95810   0.58063   1.32537   -2.9050094792E+01    4.7727558227E+00   -1.9038827377E+02  <-- BEEF
     294   1.04160   0.06835   2.38160   -3.0235282776E+01    5.8387067372E+00   -1.9157346176E+02  <-- BEEF
     295   1.05354   1.34086   0.28357   -3.3142590651E+01    4.3012033298E+00   -1.9448076963E+02  <-- BEEF
     296   0.82824   1.81320  -2.40107   -2.7317667955E+01    4.4750538055E+00   -1.8865584694E+02  <-- BEEF
     297   0.97284   0.61791   1.08135   -2.9394976096E+01    5.1060255049E+00   -1.9073315508E+02  <-- BEEF
     298   1.01708   0.46574   1.56828   -3.0337858425E+01    5.3428432162E+00   -1.9167603741E+02  <-- BEEF
     299   1.05542  -0.51369   3.33188   -2.9387882959E+01    6.7177124484E+00   -1.9072606194E+02  <-- BEEF
     300   1.04294  -0.47926   3.47580   -2.9257655975E+01    6.2857315841E+00   -1.9059583496E+02  <-- BEEF
     301   1.16970  -1.98224   7.26420   -3.0138218954E+01    7.4456634832E+00   -1.9147639793E+02  <-- BEEF
     302   1.04553   0.51175   1.46172   -3.1134263882E+01    5.5667673936E+00   -1.9247244286E+02  <-- BEEF
     303   1.16102  -1.34737   6.26858   -3.1247736981E+01    6.4831898245E+00   -1.9258591596E+02  <-- BEEF
     304   0.95212   0.88602   0.56084   -2.9374604261E+01    4.6965306072E+00   -1.9071278324E+02  <-- BEEF
     305   1.00329  -0.45061   2.97569   -2.8053659280E+01    6.5517626832E+00   -1.8939183826E+02  <-- BEEF
     306   1.06964   1.31360   0.17257   -3.3404817658E+01    4.6915243247E+00   -1.9474299664E+02  <-- BEEF
     307   0.95909   0.53610   1.29810   -2.8926333016E+01    4.9801367091E+00   -1.9026451200E+02  <-- BEEF
     308   0.93290   0.93964  -0.28048   -2.8566805386E+01    5.5248960431E+00   -1.8990498437E+02  <-- BEEF
     309   1.04433   0.16473   2.25527   -3.0520288465E+01    5.6918019701E+00   -1.9185846745E+02  <-- BEEF
     310   1.03458  -0.04715   2.21510   -2.9616673063E+01    6.4304504451E+00   -1.9095485204E+02  <-- BEEF
     311   1.07323   1.37796  -0.29492   -3.3420551375E+01    5.1475422753E+00   -1.9475873036E+02  <-- BEEF
     312   1.05000  -0.22851   2.97569   -2.9899875264E+01    6.1444223407E+00   -1.9123805424E+02  <-- BEEF
     313   0.72983   1.57527  -1.91917   -2.4391895125E+01    3.8252434360E+00   -1.8573007411E+02  <-- BEEF
     314   1.01504  -0.08180   2.73933   -2.9318941349E+01    5.6529795278E+00   -1.9065712033E+02  <-- BEEF
     315   0.93343   0.03002   1.60966   -2.6941561617E+01    6.1510141911E+00   -1.8827974060E+02  <-- BEEF
     316   1.03057   0.42418   1.70524   -3.0633327100E+01    5.4138006078E+00   -1.9197150608E+02  <-- BEEF
     317   1.11616  -0.88604   4.69279   -3.0590246293E+01    6.6581028698E+00   -1.9192842527E+02  <-- BEEF
     318   0.75269   1.57045  -2.19409   -2.4798241550E+01    4.4222527745E+00   -1.8613642053E+02  <-- BEEF
     319   0.94891   0.42077   0.84569   -2.8064617129E+01    5.9469797894E+00   -1.8940279611E+02  <-- BEEF
     320   1.04958  -0.30111   3.61831   -3.0040119884E+01    5.4984958339E+00   -1.9137829886E+02  <-- BEEF
     321   1.06853  -1.58723   5.67437   -2.7849499802E+01    7.4046270348E+00   -1.8918767878E+02  <-- BEEF
     322   1.05597  -0.27277   2.72051   -2.9772428959E+01    6.7135668084E+00   -1.9111060794E+02  <-- BEEF
     323   1.01473  -0.04424   2.05762   -2.9032830606E+01    6.4741368705E+00   -1.9037100959E+02  <-- BEEF
     324   0.94792   0.75158   0.51495   -2.8839852881E+01    5.2106889186E+00   -1.9017803186E+02  <-- BEEF
     325   0.90658   0.44786   0.69150   -2.6986345100E+01    5.7092572541E+00   -1.8832452408E+02  <-- BEEF
     326   0.95948   0.64141   0.78697   -2.8958639237E+01    5.3228355478E+00   -1.9029681822E+02  <-- BEEF
     327   1.03117  -0.31478   3.27953   -2.9339319850E+01    5.8692382113E+00   -1.9067749883E+02  <-- BEEF
     328   1.10602  -0.90862   4.66201   -3.0248477328E+01    6.6973547139E+00   -1.9158665631E+02  <-- BEEF
     329   1.01153   0.39284   1.61652   -3.0007051586E+01    5.4911673082E+00   -1.9134523057E+02  <-- BEEF
     330   1.12305  -1.30981   5.74795   -3.0101007376E+01    6.7600686724E+00   -1.9143918636E+02  <-- BEEF
     331   0.97561   0.65414   0.99235   -2.9522346250E+01    5.1239013495E+00   -1.9086052523E+02  <-- BEEF
     332   0.82615  -0.67217   2.46418   -2.2615620651E+01    6.5767705773E+00   -1.8395379963E+02  <-- BEEF
     333   1.00384  -0.42544   3.39275   -2.8381766875E+01    5.8786801609E+00   -1.8971994586E+02  <-- BEEF
     334   0.85716   0.25125   0.49947   -2.5037685541E+01    6.2719518975E+00   -1.8637586452E+02  <-- BEEF
     335   1.03956  -1.11169   4.49146   -2.7861607894E+01    7.1093992827E+00   -1.8919978688E+02  <-- BEEF
     336   0.88751   0.62440   0.49246   -2.6917879431E+01    5.1916217988E+00   -1.8825605841E+02  <-- BEEF
     337   0.96769   0.41875   0.90544   -2.8568016543E+01    6.0286206646E+00   -1.8990619552E+02  <-- BEEF
     338   1.08519   0.48936   1.61414   -3.2158103102E+01    5.7675397338E+00   -1.9349628208E+02  <-- BEEF
     339   1.19366  -1.25338   6.22192   -3.2328037434E+01    6.4850508493E+00   -1.9366621641E+02  <-- BEEF
     340   1.07070   0.36744   2.24532   -3.1788255251E+01    5.1969285379E+00   -1.9312643423E+02  <-- BEEF
     341   0.91625   1.16937  -0.78130   -2.8546008154E+01    5.2605460579E+00   -1.8988418713E+02  <-- BEEF
     342   0.85297   0.94937  -0.45447   -2.6473751056E+01    5.0604983813E+00   -1.8781193004E+02  <-- BEEF
     343   0.98761   1.78541  -1.03510   -3.2049343211E+01    3.9971652800E+00   -1.9338752219E+02  <-- BEEF
     344   1.12755   0.16464   2.57967   -3.2811457111E+01    5.9375042353E+00   -1.9414963609E+02  <-- BEEF
     345   1.00199   0.00063   2.45841   -2.9074519338E+01    5.6408674682E+00   -1.9041269832E+02  <-- BEEF
     346   1.01236  -1.06194   4.04080   -2.7064090431E+01    7.3346840289E+00   -1.8840226941E+02  <-- BEEF
     347   1.00306   0.89755   0.72401   -3.0791521626E+01    4.8549709865E+00   -1.9212970061E+02  <-- BEEF
     348   0.95942   0.46651   0.77482   -2.8426815226E+01    5.9703600715E+00   -1.8976499421E+02  <-- BEEF
     349   1.04027   0.39056   1.51485   -3.0669056934E+01    5.8848354218E+00   -1.9200723591E+02  <-- BEEF
     350   1.00560   1.19441   0.02713   -3.1344583509E+01    4.7860651045E+00   -1.9268276249E+02  <-- BEEF
     351   1.13238   0.09289   2.85800   -3.2878340562E+01    5.8453615904E+00   -1.9421651954E+02  <-- BEEF
     352   0.92335   1.44153  -1.47705   -2.9141348993E+01    5.3176744529E+00   -1.9047952797E+02  <-- BEEF
     353   1.11578  -0.35230   3.82711   -3.1681677772E+01    5.9476939156E+00   -1.9301985675E+02  <-- BEEF
     354   0.97391  -0.07678   2.21207   -2.7991324027E+01    6.0299413160E+00   -1.8932950301E+02  <-- BEEF
     355   0.96991  -0.43325   3.19427   -2.7386245828E+01    5.9000074756E+00   -1.8872442481E+02  <-- BEEF
     356   0.94792   0.74587   0.65963   -2.8905555793E+01    5.0276402872E+00   -1.9024373477E+02  <-- BEEF
     357   0.77175   0.92730  -0.78310   -2.4164448601E+01    4.9175644028E+00   -1.8550262758E+02  <-- BEEF
     358   1.03629   1.19208  -0.11191   -3.2034687070E+01    5.2490547252E+00   -1.9337286605E+02  <-- BEEF
     359   0.94726   0.74671   0.98286   -2.9076636428E+01    4.5642227748E+00   -1.9041481541E+02  <-- BEEF
     360   0.97284   0.43315   1.05826   -2.8828880433E+01    5.8050424660E+00   -1.9016705941E+02  <-- BEEF
     361   0.86068   0.60135   0.10245   -2.5946696566E+01    5.5972997344E+00   -1.8728487555E+02  <-- BEEF
     362   0.90066  -0.44290   2.73918   -2.5344433981E+01    5.9911593439E+00   -1.8668261296E+02  <-- BEEF
     363   1.01984   0.13786   1.89904   -2.9616280700E+01    6.0835379380E+00   -1.9095445968E+02  <-- BEEF
     364   1.03432  -0.46152   3.55272   -2.9136678523E+01    6.0407769745E+00   -1.9047485750E+02  <-- BEEF
     365   0.85972   0.19820   0.85692   -2.5148399626E+01    5.9818691200E+00   -1.8648657861E+02  <-- BEEF
     366   1.00827  -0.48782   2.56895   -2.7835163454E+01    7.3003228566E+00   -1.8917334244E+02  <-- BEEF
     367   0.98022   0.21436   1.68141   -2.8718013700E+01    5.7796391988E+00   -1.9005619268E+02  <-- BEEF
     368   1.02942   0.14275   2.45603   -3.0192312504E+01    5.3628656677E+00   -1.9153049148E+02  <-- BEEF
     369   1.01804   0.08811   1.88076   -2.9411445394E+01    6.2735207955E+00   -1.9074962437E+02  <-- BEEF
     370   1.05882  -1.33761   4.78576   -2.7841545822E+01    7.6726696201E+00   -1.8917972480E+02  <-- BEEF
     371   1.00773   0.35449   1.51178   -2.9735971760E+01    5.7447798056E+00   -1.9107415074E+02  <-- BEEF
     372   0.87773   1.62699  -1.22621   -2.8685655739E+01    3.9108771390E+00   -1.9002383472E+02  <-- BEEF
     373   1.21535  -0.14821   3.65538   -3.4713045574E+01    6.2928000386E+00   -1.9605122455E+02  <-- BEEF
     374   1.00286   1.44135  -0.23648   -3.1863081517E+01    4.2430733556E+00   -1.9320126050E+02  <-- BEEF
     375   0.94848   0.44330   1.21469   -2.8332482478E+01    5.3427925356E+00   -1.8967066146E+02  <-- BEEF
     376   0.91199   1.26140  -0.86495   -2.8665666984E+01    5.0103332106E+00   -1.9000384596E+02  <-- BEEF
     377   1.15199  -1.10281   5.28474   -3.1187441388E+01    6.9093114907E+00   -1.9252562037E+02  <-- BEEF
     378   0.99075   0.02210   2.08760   -2.8641796453E+01    5.9903733537E+00   -1.8997997543E+02  <-- BEEF
     379   1.12993   0.09096   2.43062   -3.2565831968E+01    6.4330979022E+00   -1.9390401095E+02  <-- BEEF
     380   1.08859  -1.23830   5.10319   -2.9073783286E+01    7.1188025709E+00   -1.9041196227E+02  <-- BEEF
     381   0.97561   1.37208  -0.62809   -3.0742017801E+01    4.8142152766E+00   -1.9208019678E+02  <-- BEEF
     382   1.02261   0.67727   1.23844   -3.0921740469E+01    5.0905510634E+00   -1.9225991945E+02  <-- BEEF
     383   1.03496  -0.79036   3.84645   -2.8337085051E+01    6.8190831432E+00   -1.8967526403E+02  <-- BEEF
     384   1.04345  -0.96208   4.49921   -2.8412102938E+01    6.5915786642E+00   -1.8975028192E+02  <-- BEEF
     385   1.02827  -0.15121   2.60079   -2.9366642948E+01    6.2099137061E+00   -1.9070482193E+02  <-- BEEF
     386   0.97717   1.21898  -0.19162   -3.0573572164E+01    4.7655311790E+00   -1.9191175114E+02  <-- BEEF
     387   1.05991  -0.48564   3.26640   -2.9547978906E+01    6.7465430053E+00   -1.9088615789E+02  <-- BEEF
     388   1.02092   0.08578   2.04249   -2.9569771049E+01    6.0786027723E+00   -1.9090795003E+02  <-- BEEF
     389   0.89648   1.56305  -1.18452   -2.8992720097E+01    4.2410323716E+00   -1.9033089908E+02  <-- BEEF
     390   1.07456  -0.19390   3.49019   -3.0919517770E+01    5.5026634412E+00   -1.9225769675E+02  <-- BEEF
     391   1.10856   0.79643   1.20745   -3.3435175236E+01    5.4291855335E+00   -1.9477335422E+02  <-- BEEF
     392   0.90607   0.37871   1.25167   -2.7087427394E+01    5.1661331691E+00   -1.8842560637E+02  <-- BEEF
     393   0.94454   0.61142   0.44152   -2.8293026929E+01    5.7911565872E+00   -1.8963120591E+02  <-- BEEF
     394   1.10203  -0.75533   4.16502   -3.0321464836E+01    6.8101227375E+00   -1.9165964382E+02  <-- BEEF
     395   0.85984   0.45156   0.93100   -2.5951913845E+01    4.9646338013E+00   -1.8729009283E+02  <-- BEEF
     396   1.04189  -0.31969   3.27304   -2.9592220894E+01    5.9865312329E+00   -1.9093039987E+02  <-- BEEF
     397   1.06571   0.84409   1.15616   -3.2464224016E+01    4.9680355228E+00   -1.9380240300E+02  <-- BEEF
     398   0.83613   1.32948  -0.77050   -2.7003905363E+01    3.9919665962E+00   -1.8834208434E+02  <-- BEEF
     399   1.11580  -0.98298   4.85856   -3.0386059571E+01    6.7715210435E+00   -1.9172423855E+02  <-- BEEF
     400   1.02418   0.39926   1.45123   -3.0251528843E+01    5.8072613620E+00   -1.9158970782E+02  <-- BEEF
     401   1.00033  -0.53382   2.82513   -2.7643361250E+01    7.0387634557E+00   -1.8898154023E+02  <-- BEEF
     402   0.96787   0.92253   0.51451   -2.9855758764E+01    4.7628210659E+00   -1.9119393775E+02  <-- BEEF
     403   0.90181   0.90507  -0.41130   -2.7601802511E+01    5.5715108137E+00   -1.8893998149E+02  <-- BEEF
     404   1.12827  -0.22108   3.62062   -3.2271953843E+01    5.8701754460E+00   -1.9361013282E+02  <-- BEEF
     405   1.00500  -0.17876   2.32261   -2.8536031427E+01    6.5044759075E+00   -1.8987421041E+02  <-- BEEF
     406   1.01099   1.11530   0.45530   -3.1489760295E+01    4.5144371473E+00   -1.9282793928E+02  <-- BEEF
     407   0.91788   0.29890   1.41559   -2.7241184727E+01    5.3229033565E+00   -1.8857936371E+02  <-- BEEF
     408   1.04799   0.56559   1.55903   -3.1413404038E+01    5.2563386757E+00   -1.9275158302E+02  <-- BEEF
     409   1.11390   0.03247   3.28312   -3.2473626628E+01    5.3092735503E+00   -1.9381180561E+02  <-- BEEF
     410   0.96399   0.60930   0.58784   -2.8862518524E+01    5.7569019048E+00   -1.9020069750E+02  <-- BEEF
     411   0.84243   1.95920  -2.55933   -2.8022762685E+01    4.2907386212E+00   -1.8936094167E+02  <-- BEEF
     412   0.87926   0.14845   0.89999   -2.5518777261E+01    6.2655861189E+00   -1.8685695624E+02  <-- BEEF
     413   1.07627  -0.03501   2.94537   -3.1126103240E+01    5.7105885449E+00   -1.9246428222E+02  <-- BEEF
     414   0.99933   2.18412  -2.15170   -3.2898959943E+01    4.2289387897E+00   -1.9423713892E+02  <-- BEEF
     415   1.14218  -1.09934   5.19531   -3.0898327265E+01    6.9398918217E+00   -1.9223650625E+02  <-- BEEF
     416   0.84081  -0.43805   2.50191   -2.3708746581E+01    5.8028032666E+00   -1.8504692556E+02  <-- BEEF
     417   0.95707   0.24164   1.21277   -2.7945347866E+01    6.1454260106E+00   -1.8928352685E+02  <-- BEEF
     418   1.03459   0.75461   1.00274   -3.1321166157E+01    5.2442469991E+00   -1.9265934514E+02  <-- BEEF
     419   0.93073   1.29555  -0.87916   -2.9233710155E+01    5.0651394946E+00   -1.9057188914E+02  <-- BEEF
     420   1.02494  -0.18782   2.43106   -2.9075503179E+01    6.5527025679E+00   -1.9041368216E+02  <-- BEEF
     421   0.98694   0.57747   1.36071   -2.9790691764E+01    4.9776978430E+00   -1.9112887074E+02  <-- BEEF
     422   1.11468   1.10194   0.98593   -3.4377163877E+01    4.6903794465E+00   -1.9571534286E+02  <-- BEEF
     423   1.12877  -0.08422   3.57035   -3.2665226082E+01    5.4514370152E+00   -1.9400340506E+02  <-- BEEF
     424   0.82564   1.82067  -2.73586   -2.7082350601E+01    4.8972955434E+00   -1.8842052958E+02  <-- BEEF
     425   1.17858   0.57876   2.12616   -3.5081738110E+01    5.5120850176E+00   -1.9641991709E+02  <-- BEEF
     426   1.12589  -0.87762   5.09233   -3.1090326163E+01    6.1475172334E+00   -1.9242850514E+02  <-- BEEF
     427   1.12462   0.58304   2.02426   -3.3671041207E+01    5.1850298505E+00   -1.9500922019E+02  <-- BEEF
     428   0.98031   0.10200   2.46825   -2.8834756607E+01    5.0784509055E+00   -1.9017293559E+02  <-- BEEF
     429   0.90251   1.16039  -0.88650   -2.8111142530E+01    5.3250390836E+00   -1.8944932151E+02  <-- BEEF
     430   1.12748   0.17288   2.49855   -3.2787909491E+01    6.0213401606E+00   -1.9412608847E+02  <-- BEEF
     431   1.02944   0.34895   1.57425   -3.0304536321E+01    5.8600011786E+00   -1.9164271530E+02  <-- BEEF
     432   0.97733   1.19147  -0.08244   -3.0557884323E+01    4.7124648584E+00   -1.9189606330E+02  <-- BEEF
     433   0.88543   0.01706   1.38298   -2.5558307594E+01    6.1118864930E+00   -1.8689648657E+02  <-- BEEF
     434   1.11988   0.15485   3.35319   -3.3031270395E+01    4.8196506176E+00   -1.9436944938E+02  <-- BEEF
     435   0.95690  -0.35265   2.65786   -2.6990766903E+01    6.2543246328E+00   -1.8832894588E+02  <-- BEEF
     436   0.96944  -0.22484   2.21133   -2.7434804552E+01    6.5274051065E+00   -1.8877298353E+02  <-- BEEF
     437   0.99912  -0.05598   2.41601   -2.8808193762E+01    5.8805241082E+00   -1.9014637274E+02  <-- BEEF
     438   1.06067  -0.47990   4.06243   -3.0040214713E+01    5.6120255984E+00   -1.9137839369E+02  <-- BEEF
     439   1.17422  -0.11974   3.60602   -3.3729273364E+01    5.9126717705E+00   -1.9506745234E+02  <-- BEEF
     440   0.86543   0.22604   1.29981   -2.5629905291E+01    5.3063402819E+00   -1.8696808427E+02  <-- BEEF
     441   1.05843   0.56827   1.76612   -3.1804088860E+01    5.0432490838E+00   -1.9314226784E+02  <-- BEEF
     442   1.00491   1.11746   0.05893   -3.1115332447E+01    5.0131480040E+00   -1.9245351143E+02  <-- BEEF
     443   0.91390  -0.43204   2.76936   -2.5729250121E+01    6.0211656413E+00   -1.8706742910E+02  <-- BEEF
     444   1.18661  -0.05085   3.97041   -3.4457725469E+01    5.2558648613E+00   -1.9579590445E+02  <-- BEEF
     445   1.02617  -0.05545   2.02512   -2.9270260701E+01    6.6568180030E+00   -1.9060843968E+02  <-- BEEF
     446   0.97877   0.54544   1.04284   -2.9306155040E+01    5.4716689236E+00   -1.9064433402E+02  <-- BEEF
     447   1.02916   0.39527   1.85102   -3.0594746228E+01    5.3010915476E+00   -1.9193292521E+02  <-- BEEF
     448   1.00848   0.25317   2.28535   -2.9894953834E+01    5.0280090852E+00   -1.9123313281E+02  <-- BEEF
     449   0.94516   0.89504   0.17492   -2.9004508460E+01    5.1483728951E+00   -1.9034268744E+02  <-- BEEF
     450   1.15192  -0.37692   4.12011   -3.2690288847E+01    5.9289805825E+00   -1.9402846783E+02  <-- BEEF
     451   0.98455   1.04493  -0.13939   -3.0269501322E+01    5.3821754925E+00   -1.9160768030E+02  <-- BEEF
     452   0.93741   0.92790   0.01786   -2.8816791617E+01    5.1855137780E+00   -1.9015497060E+02  <-- BEEF
     453   1.07287   0.09639   2.23384   -3.1025620288E+01    6.2091858850E+00   -1.9236379927E+02  <-- BEEF
     454   1.00451   1.12059   0.01296   -3.1088080037E+01    5.0631625779E+00   -1.9242625902E+02  <-- BEEF
     455   1.04376  -1.07112   4.56963   -2.8134166288E+01    6.8885166680E+00   -1.8947234527E+02  <-- BEEF
     456   0.89076   0.34140   0.23320   -2.6005066611E+01    6.6048083607E+00   -1.8734324559E+02  <-- BEEF
     457   1.00471   1.19433  -0.15278   -3.1218902196E+01    5.0320613985E+00   -1.9255708118E+02  <-- BEEF
     458   1.08777   1.38405   0.24732   -3.4117347896E+01    4.4851817720E+00   -1.9545552688E+02  <-- BEEF
     459   0.98955   1.57542  -0.81466   -3.1596251222E+01    4.4608321017E+00   -1.9293443020E+02  <-- BEEF
     460   1.04257  -0.88408   4.08487   -2.8385993348E+01    6.8858818008E+00   -1.8972417233E+02  <-- BEEF
     461   0.95033   0.83701   0.51499   -2.9156498431E+01    4.9227555979E+00   -1.9049467741E+02  <-- BEEF
     462   0.92219   0.28428   1.33126   -2.7258375867E+01    5.5307201581E+00   -1.8859655485E+02  <-- BEEF
     463   1.04641  -0.09917   2.92072   -3.0164487318E+01    5.7248842842E+00   -1.9150266630E+02  <-- BEEF
     464   0.99239   0.23569   1.87479   -2.9200579921E+01    5.5332157845E+00   -1.9053875890E+02  <-- BEEF
     465   1.10788  -0.04469   2.82956   -3.1830514712E+01    6.1750963384E+00   -1.9316869369E+02  <-- BEEF
     466   1.08868   0.82183   0.94928   -3.2860371862E+01    5.5332369712E+00   -1.9419855084E+02  <-- BEEF
     467   0.92844   1.56589  -1.41021   -2.9680511566E+01    4.8179410703E+00   -1.9101869055E+02  <-- BEEF
     468   0.96974  -0.08933   2.65057   -2.8099446806E+01    5.4229906417E+00   -1.8943762579E+02  <-- BEEF
     469   1.05369   1.15115   0.36152   -3.2623541927E+01    4.8771736266E+00   -1.9396172091E+02  <-- BEEF
     470   0.88313   0.10124   0.88237   -2.5465202333E+01    6.4932635595E+00   -1.8680338131E+02  <-- BEEF
     471   0.86544   0.73371  -0.28699   -2.6240077866E+01    5.7080152362E+00   -1.8757825685E+02  <-- BEEF
     472   0.98380   1.54349  -0.89458   -3.1309561539E+01    4.6400080298E+00   -1.9264774052E+02  <-- BEEF
     473   0.99666   0.79414   0.63429   -3.0268817690E+01    5.3003000092E+00   -1.9160699667E+02  <-- BEEF
     474   0.97112   0.56323   0.59474   -2.8908985013E+01    5.9735046534E+00   -1.9024716399E+02  <-- BEEF
     475   0.75274   1.47095  -2.02240   -2.4600263704E+01    4.5400704718E+00   -1.8593844268E+02  <-- BEEF
     476   1.14439  -0.52268   4.46687   -3.2262319041E+01    5.9033497629E+00   -1.9360049802E+02  <-- BEEF
     477   0.95770   0.18834   1.29443   -2.7848505112E+01    6.2280998785E+00   -1.8918668409E+02  <-- BEEF
     478   0.94728  -0.12027   2.47328   -2.7336898943E+01    5.5946292693E+00   -1.8867507792E+02  <-- BEEF
     479   1.02945   0.23469   2.20415   -3.0323724028E+01    5.3858328151E+00   -1.9166190301E+02  <-- BEEF
     480   1.01964  -0.36453   3.12855   -2.8812438509E+01    6.1639859186E+00   -1.9015061749E+02  <-- BEEF
     481   0.92033  -0.10302   2.14052   -2.6516070079E+01    5.7733662843E+00   -1.8785424906E+02  <-- BEEF
     482   1.11944   0.45529   1.83444   -3.3048913544E+01    5.8692555465E+00   -1.9438709252E+02  <-- BEEF
     483   1.03070   0.27141   2.06034   -3.0382892881E+01    5.4662892189E+00   -1.9172107186E+02  <-- BEEF
     484   0.98794   1.60956  -1.00225   -3.1550402630E+01    4.5881123257E+00   -1.9288858161E+02  <-- BEEF
     485   1.02210  -0.42995   3.07931   -2.8650752816E+01    6.4900313404E+00   -1.8998893180E+02  <-- BEEF
     486   1.01526  -0.84307   3.97556   -2.7754983405E+01    6.6614203996E+00   -1.8909316239E+02  <-- BEEF
     487   1.00239   0.49454   1.26715   -2.9879954101E+01    5.5388353168E+00   -1.9121813308E+02  <-- BEEF
     488   1.13525  -0.93616   5.19829   -3.1212829779E+01    6.2885601729E+00   -1.9255100876E+02  <-- BEEF
     489   0.99591   0.06645   2.60864   -2.9203645213E+01    5.1407560407E+00   -1.9054182419E+02  <-- BEEF
     490   1.03413  -0.62995   3.25380   -2.8456685265E+01    7.0674295754E+00   -1.8979486425E+02  <-- BEEF
     491   1.01275   1.11364   0.24592   -3.1409163582E+01    4.8298594946E+00   -1.9274734256E+02  <-- BEEF
     492   1.01246  -0.97923   4.32329   -2.7476046237E+01    6.6397108238E+00   -1.8881422522E+02  <-- BEEF
     493   1.06181   0.52805   1.03282   -3.1349352769E+01    6.2488302785E+00   -1.9268753175E+02  <-- BEEF
     494   0.86712   1.78755  -1.91762   -2.8501461769E+01    4.2151562036E+00   -1.8983964075E+02  <-- BEEF
     495   1.05911  -0.16097   2.88640   -3.0281235855E+01    6.1032564419E+00   -1.9161941484E+02  <-- BEEF
     496   0.93421   0.14791   1.16627   -2.7060049035E+01    6.3562451621E+00   -1.8839822802E+02  <-- BEEF
     497   1.02194   0.47368   1.70362   -3.0562010377E+01    5.1646907776E+00   -1.9190018936E+02  <-- BEEF
     498   1.02548   0.63780   0.95593   -3.0714350833E+01    5.6546897012E+00   -1.9205252981E+02  <-- BEEF
     499   1.05716  -0.13403   2.67105   -3.0189308871E+01    6.2927148001E+00   -1.9152748785E+02  <-- BEEF
     500   1.03072   0.51539   1.68695   -3.0899398090E+01    5.1117180768E+00   -1.9223757707E+02  <-- BEEF
     501   1.03402   0.71089   1.04781   -3.1201709859E+01    5.3337468263E+00   -1.9253988884E+02  <-- BEEF
     502   1.18824  -1.07150   5.68398   -3.2426967599E+01    6.5402489592E+00   -1.9376514658E+02  <-- BEEF
     503   0.88748   2.12226  -2.37371   -2.9756668365E+01    3.8211814049E+00   -1.9109484735E+02  <-- BEEF
     504   0.96592  -0.37284   2.82951   -2.7256918028E+01    6.1616898355E+00   -1.8859509701E+02  <-- BEEF
     505   0.96721   0.60503   0.78984   -2.9046994908E+01    5.5152532248E+00   -1.9038517389E+02  <-- BEEF
     506   1.06394  -0.69579   3.50436   -2.9157481398E+01    7.2037630683E+00   -1.9049566038E+02  <-- BEEF
     507   0.84045   1.00322  -0.67256   -2.6193276387E+01    5.0675862698E+00   -1.8753145537E+02  <-- BEEF
     508   1.04798  -0.32281   3.91513   -3.0104761152E+01    5.1455535777E+00   -1.9144294013E+02  <-- BEEF
     509   1.08520  -1.15104   4.75727   -2.9050943599E+01    7.2622553213E+00   -1.9038912258E+02  <-- BEEF
     510   1.07297  -2.16663   6.97228   -2.6971818993E+01    7.7058038493E+00   -1.8830999797E+02  <-- BEEF
     511   0.91938  -0.09557   2.15385   -2.6521892516E+01    5.7197116540E+00   -1.8786007150E+02  <-- BEEF
     512   1.06099   0.37476   1.74619   -3.1278596693E+01    5.7910338049E+00   -1.9261677567E+02  <-- BEEF
     513   0.91022   1.21050  -0.23172   -2.8831220063E+01    4.2878758402E+00   -1.9016939904E+02  <-- BEEF
     514   1.06774  -0.66082   4.00702   -2.9646023483E+01    6.4022644035E+00   -1.9098420246E+02  <-- BEEF
     515   0.98696   1.24635  -0.16757   -3.0916894101E+01    4.7155061771E+00   -1.9225507308E+02  <-- BEEF
     516   1.11596  -1.65241   6.31897   -2.9223691117E+01    7.1326716304E+00   -1.9056187010E+02  <-- BEEF
     517   1.01502  -0.65869   3.49984   -2.8027979479E+01    6.6636857971E+00   -1.8936615846E+02  <-- BEEF
     518   1.10454  -0.75529   4.59357   -3.0630560471E+01    6.2280303070E+00   -1.9196873945E+02  <-- BEEF
     519   0.81983   0.76272  -0.29323   -2.5169304681E+01    5.2274996194E+00   -1.8650748366E+02  <-- BEEF
     520   1.07249   0.36924   1.99521   -3.1695738483E+01    5.5575373009E+00   -1.9303391746E+02  <-- BEEF
     521   0.97850   0.48797   0.77174   -2.8971950800E+01    6.0582093398E+00   -1.9031012978E+02  <-- BEEF
     522   1.03723  -1.72379   6.30362   -2.7009446052E+01    6.7477635644E+00   -1.8834762503E+02  <-- BEEF
[...]
    4825   1.12191  -0.07170   3.06422   -3.2239307000E+01    6.0606610663E+00   -1.9357748598E+02  <-- BEEF
    4826   0.95669   0.91576   0.25950   -2.9406571872E+01    5.0518482100E+00   -1.9074475085E+02  <-- BEEF
    4827   1.01305   1.01129   0.86915   -3.1467667466E+01    4.3246238773E+00   -1.9280584645E+02  <-- BEEF
    4828   0.92614  -0.46850   2.19159   -2.5598943943E+01    7.0690011551E+00   -1.8693712292E+02  <-- BEEF
    4829   1.08994   1.47358  -0.17003   -3.4201009331E+01    4.7677988088E+00   -1.9553918831E+02  <-- BEEF
    4830   0.95116   0.73662   0.57666   -2.8912335476E+01    5.2051073063E+00   -1.9025051446E+02  <-- BEEF
    4831   1.04193   1.00564   0.67014   -3.2067511282E+01    4.8686328234E+00   -1.9340569026E+02  <-- BEEF
    4832   0.91355   0.47214   0.64250   -2.7207330566E+01    5.7493923402E+00   -1.8854550955E+02  <-- BEEF
    4833   1.01953  -0.05774   2.42632   -2.9325275542E+01    6.0445424876E+00   -1.9066345452E+02  <-- BEEF
    4834   0.99728   0.40852   1.63527   -2.9703997464E+01    5.2879646726E+00   -1.9104217644E+02  <-- BEEF
    4835   1.03165  -0.51939   2.84905   -2.8492765110E+01    7.2172351265E+00   -1.8983094409E+02  <-- BEEF
    4836   0.88254   1.91033  -2.08446   -2.9163472066E+01    4.1370847065E+00   -1.9050165105E+02  <-- BEEF
    4837   0.95672   0.27672   1.20825   -2.8038798719E+01    6.0222561463E+00   -1.8937697770E+02  <-- BEEF
    4838   1.01105   0.57691   0.89709   -3.0133533190E+01    5.8354944258E+00   -1.9147171217E+02  <-- BEEF
    4839   1.00348  -0.46455   2.93537   -2.7993592834E+01    6.6603599321E+00   -1.8933177181E+02  <-- BEEF
    4840   0.75550   2.03118  -3.12264   -2.5715860161E+01    4.0905727799E+00   -1.8705403914E+02  <-- BEEF
    4841   1.03869   0.02956   2.36849   -3.0038045571E+01    5.9725231281E+00   -1.9137622455E+02  <-- BEEF
    4842   1.08635  -0.01926   2.94110   -3.1425988041E+01    5.7448467173E+00   -1.9276416702E+02  <-- BEEF
    4843   0.94426  -0.09629   2.59323   -2.7400914203E+01    5.3138362539E+00   -1.8873909318E+02  <-- BEEF
    4844   0.80987   0.35821   0.22258   -2.4002522041E+01    5.8768619336E+00   -1.8534070102E+02  <-- BEEF
    4845   1.07921  -0.18991   2.58686   -3.0531599223E+01    6.7986932280E+00   -1.9186977820E+02  <-- BEEF
    4846   1.03253   1.00192   1.04671   -3.2034144885E+01    4.2728307203E+00   -1.9337232387E+02  <-- BEEF
    4847   1.04951  -0.26909   3.50076   -3.0066906629E+01    5.5478016177E+00   -1.9140508561E+02  <-- BEEF
    4848   0.80983   1.31351  -1.71165   -2.5751735115E+01    5.1522365364E+00   -1.8708991410E+02  <-- BEEF
    4849   1.00228  -0.39670   2.94610   -2.8172422108E+01    6.3903974355E+00   -1.8951060109E+02  <-- BEEF
    4850   1.05419   0.21180   2.49211   -3.1046198268E+01    5.2718346076E+00   -1.9238437725E+02  <-- BEEF
    4851   0.95880  -0.47186   2.93350   -2.6840235286E+01    6.3125672192E+00   -1.8817841427E+02  <-- BEEF
    4852   1.08256  -0.66623   4.35164   -3.0202268242E+01    6.0618042959E+00   -1.9154044722E+02  <-- BEEF
    4853   1.02571   0.59896   1.43105   -3.0876147997E+01    5.1281582813E+00   -1.9221432698E+02  <-- BEEF
    4854   1.12526   0.28431   2.51355   -3.3073581812E+01    5.5794790046E+00   -1.9441176079E+02  <-- BEEF
    4855   0.97224   0.09260   2.07403   -2.8376553428E+01    5.5990430564E+00   -1.8971473241E+02  <-- BEEF
    4856   1.02319   0.17642   1.98118   -2.9863365386E+01    5.8570302376E+00   -1.9120154437E+02  <-- BEEF
    4857   1.09033  -0.67284   4.62564   -3.0536133270E+01    5.7656612875E+00   -1.9187431225E+02  <-- BEEF
    4858   0.96104   0.29786   1.17231   -2.8190951484E+01    6.0330648969E+00   -1.8952913046E+02  <-- BEEF
    4859   1.09667   0.31356   2.07187   -3.2184690623E+01    5.8543896941E+00   -1.9352286960E+02  <-- BEEF
    4860   0.96970   0.78692   0.55110   -2.9517357215E+01    5.2160090248E+00   -1.9085553620E+02  <-- BEEF
    4861   1.08529   0.29991   1.80547   -3.1703345403E+01    6.1825405685E+00   -1.9304152438E+02  <-- BEEF
    4862   0.97356   0.49504   1.37590   -2.9214083255E+01    5.1407686069E+00   -1.9055226224E+02  <-- BEEF
    4863   1.06150  -0.97811   4.62265   -2.8891498390E+01    6.6279371182E+00   -1.9022967737E+02  <-- BEEF
    4864   0.95804   0.81101   0.65193   -2.9352100678E+01    4.8888516686E+00   -1.9069027966E+02  <-- BEEF
    4865   0.86792   0.75811  -0.09790   -2.6484048327E+01    5.3747756797E+00   -1.8782222731E+02  <-- BEEF
    4866   1.01740   0.00008   2.12149   -2.9269705841E+01    6.2469370376E+00   -1.9060788482E+02  <-- BEEF
    4867   0.98733   0.69399   1.03871   -2.9964675879E+01    5.0137622763E+00   -1.9130285486E+02  <-- BEEF
    4868   1.00281   0.74951   0.52992   -3.0231121924E+01    5.6600622207E+00   -1.9156930090E+02  <-- BEEF
    4869   0.96555  -0.46148   3.18490   -2.7186075889E+01    5.9782468396E+00   -1.8852425487E+02  <-- BEEF
    4870   0.97893   0.99485   0.34473   -3.0254706700E+01    4.8341045394E+00   -1.9159288568E+02  <-- BEEF
    4871   1.12045   0.14072   2.61147   -3.2578400782E+01    5.9191235076E+00   -1.9391657976E+02  <-- BEEF
    4872   1.05407   0.05466   2.33933   -3.0485544043E+01    6.0527220428E+00   -1.9182372302E+02  <-- BEEF
    4873   1.08477  -0.28051   2.87380   -3.0565714831E+01    6.7686832913E+00   -1.9190389381E+02  <-- BEEF
    4874   0.99344  -0.46742   2.87043   -2.7693714480E+01    6.6773835040E+00   -1.8903189346E+02  <-- BEEF
    4875   1.06896  -1.14539   5.04619   -2.8822401799E+01    6.6982952453E+00   -1.9016058078E+02  <-- BEEF
    4876   1.07995  -1.32228   5.35627   -2.8748913788E+01    6.9927496054E+00   -1.9008709277E+02  <-- BEEF
    4877   0.95254  -0.69922   3.39552   -2.6266162235E+01    6.4297552166E+00   -1.8760434122E+02  <-- BEEF
    4878   0.86946   1.34421  -1.23708   -2.7624158692E+01    4.8765485041E+00   -1.8896233767E+02  <-- BEEF
    4879   1.17350  -1.88014   7.10222   -3.0446853368E+01    7.3372605349E+00   -1.9178503235E+02  <-- BEEF
    4880   0.97929   0.29879   1.26634   -2.8709354151E+01    6.0513244862E+00   -1.9004753313E+02  <-- BEEF
    4881   0.90114   1.53488  -0.95955   -2.9155108321E+01    4.0653222968E+00   -1.9049328730E+02  <-- BEEF
    4882   0.97515  -0.21065   2.53656   -2.7808030013E+01    6.0667298384E+00   -1.8914620899E+02  <-- BEEF
    4883   0.84471   0.25674   1.01642   -2.5035102852E+01    5.4196152973E+00   -1.8637328183E+02  <-- BEEF
    4884   1.04275  -1.18251   4.61736   -2.7802588235E+01    7.2146113929E+00   -1.8914076722E+02  <-- BEEF
    4885   1.02115  -0.01568   2.27917   -2.9407812432E+01    6.1135122330E+00   -1.9074599141E+02  <-- BEEF
    4886   1.00953  -0.41378   3.27321   -2.8491940422E+01    6.0527484067E+00   -1.8983011940E+02  <-- BEEF
    4887   0.97488   1.44718  -0.69551   -3.0909643265E+01    4.6320425325E+00   -1.9224782225E+02  <-- BEEF
    4888   1.25579  -1.28183   6.74153   -3.4112544151E+01    6.3804969321E+00   -1.9545072313E+02  <-- BEEF
    4889   1.04120  -0.10528   3.22760   -3.0190249515E+01    5.2711892019E+00   -1.9152842850E+02  <-- BEEF
    4890   0.88189   0.80093  -0.50099   -2.6734815173E+01    5.9053807146E+00   -1.8807299415E+02  <-- BEEF
    4891   1.01835  -0.41244   2.95474   -2.8536750371E+01    6.5704836798E+00   -1.8987492935E+02  <-- BEEF
    4892   0.94136   0.13091   1.79086   -2.7547654796E+01    5.5988832404E+00   -1.8888583378E+02  <-- BEEF
    4893   1.01827   0.54412   1.45405   -3.0536970226E+01    5.2308477317E+00   -1.9187514921E+02  <-- BEEF
    4894   1.09427  -0.60239   3.79977   -3.0373431888E+01    6.7068762478E+00   -1.9171161087E+02  <-- BEEF
    4895   0.89603   0.38706   1.24445   -2.6854075456E+01    5.0614133528E+00   -1.8819225444E+02  <-- BEEF
    4896   1.01326   0.39829   1.53732   -3.0021565157E+01    5.5974953376E+00   -1.9135974414E+02  <-- BEEF
    4897   1.04610   0.63008   1.20756   -3.1357298092E+01    5.5024010788E+00   -1.9269547707E+02  <-- BEEF
    4898   0.89072  -0.31000   2.35311   -2.5269438623E+01    5.9712192878E+00   -1.8660761760E+02  <-- BEEF
    4899   0.92172   0.24254   1.56873   -2.7257554050E+01    5.3431698199E+00   -1.8859573303E+02  <-- BEEF
    4900   1.06077   0.23933   2.64039   -3.1380037946E+01    5.0193746829E+00   -1.9271821693E+02  <-- BEEF
    4901   1.10584   0.01569   2.60599   -3.1831627315E+01    6.2547121544E+00   -1.9316980630E+02  <-- BEEF
    4902   0.91814   0.61408   0.41955   -2.7620168273E+01    5.5897644219E+00   -1.8895834725E+02  <-- BEEF
    4903   1.06799  -1.01965   4.48831   -2.8854620265E+01    7.0216231276E+00   -1.9019279925E+02  <-- BEEF
    4904   0.84489   1.74239  -1.76177   -2.7893307541E+01    3.9712772558E+00   -1.8923148652E+02  <-- BEEF
    4905   1.16526   0.22840   2.82180   -3.4095105518E+01    5.6848064719E+00   -1.9543328450E+02  <-- BEEF
    4906   1.01032  -1.12135   4.52958   -2.7114763284E+01    6.8439994038E+00   -1.8845294227E+02  <-- BEEF
    4907   1.01431  -0.37927   3.32203   -2.8744259352E+01    5.8999504140E+00   -1.9008243833E+02  <-- BEEF
    4908   1.11982  -0.09359   3.42778   -3.2329136393E+01    5.6104054753E+00   -1.9366731537E+02  <-- BEEF
    4909   0.95307   1.72506  -1.68901   -3.0620183008E+01    4.8437565316E+00   -1.9195836199E+02  <-- BEEF
    4910   1.05944  -0.00690   2.36201   -3.0450225972E+01    6.2881670082E+00   -1.9178840495E+02  <-- BEEF
    4911   0.87576   0.45939   0.28452   -2.6007830834E+01    5.9804231796E+00   -1.8734600981E+02  <-- BEEF
    4912   0.97089  -0.19610   2.62061   -2.7791842354E+01    5.8600130533E+00   -1.8913002133E+02  <-- BEEF
    4913   1.01560  -0.66311   3.40348   -2.7974387219E+01    6.8201634363E+00   -1.8931256620E+02  <-- BEEF
    4914   0.97401   1.73696  -1.18258   -3.1475644449E+01    4.2647471915E+00   -1.9281382343E+02  <-- BEEF
    4915   0.99779   0.89021   0.59542   -3.0562361907E+01    5.0178829821E+00   -1.9190054089E+02  <-- BEEF
    4916   0.98977   0.05504   2.07168   -2.8706512892E+01    5.8857337699E+00   -1.9004469187E+02  <-- BEEF
    4917   1.03987  -0.33099   3.05982   -2.9385167330E+01    6.3103049450E+00   -1.9072334631E+02  <-- BEEF
    4918   1.00964  -0.04271   2.28694   -2.9040088912E+01    6.1030361434E+00   -1.9037826789E+02  <-- BEEF
    4919   1.03267  -0.27233   3.20591   -2.9462098920E+01    5.8323576982E+00   -1.9080027790E+02  <-- BEEF
    4920   1.25425  -1.03400   5.67593   -3.4204569387E+01    6.9730006484E+00   -1.9554274837E+02  <-- BEEF
    4921   0.96182   1.52460  -0.55867   -3.0889340319E+01    4.0500927769E+00   -1.9222751930E+02  <-- BEEF
    4922   1.05961  -1.28418   5.37840   -2.8360966644E+01    6.6526721438E+00   -1.8969914562E+02  <-- BEEF
    4923   0.92560   1.43220  -1.04735   -2.9416407687E+01    4.7655924639E+00   -1.9075458667E+02  <-- BEEF
    4924   1.12596  -0.26011   3.43097   -3.1988073031E+01    6.2584078772E+00   -1.9332625201E+02  <-- BEEF
    4925   1.02704   0.29648   2.17262   -3.0429561896E+01    5.1869903393E+00   -1.9176774088E+02  <-- BEEF
    4926   0.94150   0.60555   0.46567   -2.8212171615E+01    5.7526315173E+00   -1.8955035060E+02  <-- BEEF
    4927   1.10995  -1.69945   6.67529   -2.9135028757E+01    6.7502538901E+00   -1.9047320774E+02  <-- BEEF
    4928   1.08648  -0.66862   3.86871   -3.0017732928E+01    6.7831322416E+00   -1.9135591191E+02  <-- BEEF
    4929   0.90063   0.29147   1.16027   -2.6636376319E+01    5.5635492862E+00   -1.8797455530E+02  <-- BEEF
    4930   1.11049  -0.08798   2.89627   -3.1805339734E+01    6.2594163756E+00   -1.9314351871E+02  <-- BEEF
    4931   1.02833   0.53013   1.42011   -3.0730371872E+01    5.4139822186E+00   -1.9206855085E+02  <-- BEEF
    4932   1.16730   0.53894   2.36570   -3.4814485515E+01    5.2235519663E+00   -1.9615266450E+02  <-- BEEF
    4933   0.97505   1.03652   0.36536   -3.0293079029E+01    4.6220615194E+00   -1.9163125801E+02  <-- BEEF
    4934   1.16257   0.00654   3.05513   -3.3496835033E+01    6.1340777958E+00   -1.9483501401E+02  <-- BEEF
    4935   1.00517   0.17763   1.80813   -2.9311879028E+01    5.9442107315E+00   -1.9065005801E+02  <-- BEEF
    4936   0.86755   2.32651  -3.00455   -2.9502156408E+01    3.8040206092E+00   -1.9084033539E+02  <-- BEEF
    4937   0.99315  -0.11126   2.93375   -2.8788375277E+01    5.3010549589E+00   -1.9012655426E+02  <-- BEEF
    4938   0.95504  -0.25091   2.31508   -2.7051888792E+01    6.3540233098E+00   -1.8839006777E+02  <-- BEEF
    4939   0.99393   0.54773   1.13901   -2.9751661085E+01    5.4559393166E+00   -1.9108984007E+02  <-- BEEF
    4940   1.08867   0.02362   2.86396   -3.1568730546E+01    5.7182447630E+00   -1.9290690953E+02  <-- BEEF
    4941   0.97857  -0.21038   2.64568   -2.7957704170E+01    5.9409730048E+00   -1.8929588315E+02  <-- BEEF
    4942   0.90206   1.27081  -0.88146   -2.8432981546E+01    4.9158300057E+00   -1.8977116053E+02  <-- BEEF
    4943   1.07147   0.21979   2.14333   -3.1307679854E+01    5.8796229342E+00   -1.9264585883E+02  <-- BEEF
    4944   0.93135  -0.01277   1.88423   -2.6917954196E+01    5.9013781932E+00   -1.8825613318E+02  <-- BEEF
    4945   1.08273  -0.26463   3.31258   -3.0812900044E+01    6.0767095778E+00   -1.9215107902E+02  <-- BEEF
    4946   0.68168   2.88957  -4.92732   -2.5382600011E+01    2.9109468306E+00   -1.8672077899E+02  <-- BEEF
    4947   1.03559  -0.01727   2.49972   -2.9894604978E+01    5.9306336288E+00   -1.9123278396E+02  <-- BEEF
    4948   0.89383   1.89059  -2.01262   -2.9431061681E+01    4.2023453682E+00   -1.9076924066E+02  <-- BEEF
    4949   0.88583   0.49390   0.64803   -2.6574048917E+01    5.4292823568E+00   -1.8791222790E+02  <-- BEEF
    4950   1.08804   0.41618   2.02789   -3.2248340740E+01    5.4733687223E+00   -1.9358651972E+02  <-- BEEF
    4951   0.85388   0.66513  -0.26541   -2.5754752820E+01    5.8275465668E+00   -1.8709293180E+02  <-- BEEF
    4952   1.16519  -0.67678   3.92063   -3.2014453466E+01    7.4033042972E+00   -1.9335263245E+02  <-- BEEF
    4953   0.94342  -0.75069   3.45160   -2.5913569951E+01    6.4596003193E+00   -1.8725174893E+02  <-- BEEF
    4954   1.01119   0.96839   0.30782   -3.0970690428E+01    5.2536336853E+00   -1.9230886941E+02  <-- BEEF
    4955   0.91894   0.43479   1.08067   -2.7482785492E+01    5.3129405700E+00   -1.8882096447E+02  <-- BEEF
    4956   0.85807   1.69310  -1.60697   -2.8167826346E+01    4.0423612317E+00   -1.8950600533E+02  <-- BEEF
    4957   1.16461   0.16641   2.88756   -3.3930759430E+01    5.8103862556E+00   -1.9526893841E+02  <-- BEEF
    4958   1.08262  -0.36076   3.95155   -3.0888640440E+01    5.5234208092E+00   -1.9222681942E+02  <-- BEEF
    4959   1.13153  -0.99533   4.83804   -3.0735226376E+01    6.9775520801E+00   -1.9207340536E+02  <-- BEEF
    4960   1.06723  -0.68622   4.38334   -2.9772794625E+01    5.9600465305E+00   -1.9111097361E+02  <-- BEEF
    4961   1.18805  -1.41218   6.09112   -3.1636108323E+01    7.1947337593E+00   -1.9297428730E+02  <-- BEEF
    4962   0.93535   0.59366   0.73756   -2.8176928928E+01    5.3611352585E+00   -1.8951510791E+02  <-- BEEF
    4963   0.91956   0.61455   0.93162   -2.7951038172E+01    4.8794854259E+00   -1.8928921715E+02  <-- BEEF
    4964   1.08218  -0.44449   3.29380   -3.0250105952E+01    6.7473368051E+00   -1.9158828493E+02  <-- BEEF
    4965   0.91513   1.30409  -0.60241   -2.9023168506E+01    4.5133208230E+00   -1.9036134749E+02  <-- BEEF
    4966   1.09326   0.26756   2.15416   -3.2008124319E+01    5.8758390246E+00   -1.9334630330E+02  <-- BEEF
    4967   0.96394  -0.18743   1.42760   -2.6958630989E+01    7.4489899809E+00   -1.8829680997E+02  <-- BEEF
    4968   0.96553  -0.05418   1.78203   -2.7600420455E+01    6.4828766722E+00   -1.8893859944E+02  <-- BEEF
    4969   0.94243   1.13843   0.09627   -2.9618538492E+01    4.3579929974E+00   -1.9095671747E+02  <-- BEEF
    4970   1.14195   0.47389   2.72278   -3.4183128445E+01    4.7419717808E+00   -1.9552130743E+02  <-- BEEF
    4971   1.07721  -0.53286   3.80624   -3.0153577617E+01    6.3031186769E+00   -1.9149175660E+02  <-- BEEF
    4972   1.13022  -1.40395   6.02857   -3.0161508630E+01    6.7652384826E+00   -1.9149968761E+02  <-- BEEF
    4973   1.06089  -1.49164   5.54836   -2.7869888647E+01    7.1726596456E+00   -1.8920806763E+02  <-- BEEF
    4974   0.88524   1.14553  -0.93369   -2.7602619794E+01    5.2993849667E+00   -1.8894079877E+02  <-- BEEF
    4975   0.99873   0.22954   1.82053   -2.9311372371E+01    5.6851618381E+00   -1.9064955135E+02  <-- BEEF
    4976   0.86853   1.11253  -0.80591   -2.7154300812E+01    5.0977235871E+00   -1.8849247979E+02  <-- BEEF
    4977   0.96119   0.32046   1.01641   -2.8172922471E+01    6.1721532884E+00   -1.8951110145E+02  <-- BEEF
    4978   1.14315   0.57280   2.52759   -3.4397543235E+01    4.6699278565E+00   -1.9573572222E+02  <-- BEEF
    4979   0.85137   0.64603   0.17500   -2.5886421148E+01    5.2555428264E+00   -1.8722460013E+02  <-- BEEF
    4980   1.06469   0.61775   1.87668   -3.2173956923E+01    4.7620086991E+00   -1.9351213590E+02  <-- BEEF
    4981   0.98269   0.15787   2.09132   -2.8846119339E+01    5.4273681621E+00   -1.9018429832E+02  <-- BEEF
    4982   0.92462   0.34021   1.24305   -2.7436464965E+01    5.4735519056E+00   -1.8877464395E+02  <-- BEEF
    4983   0.98321   0.47609   1.81299   -2.9651996031E+01    4.6754868446E+00   -1.9099017501E+02  <-- BEEF
    4984   0.98151   0.03727   2.33877   -2.8597234903E+01    5.5042498912E+00   -1.8993541388E+02  <-- BEEF
    4985   0.94985   0.46180   1.36793   -2.8510305126E+01    5.0720160302E+00   -1.8984848411E+02  <-- BEEF
    4986   0.93858   0.65535   0.53007   -2.8324160845E+01    5.4577378200E+00   -1.8966233983E+02  <-- BEEF
    4987   0.95785  -0.06835   2.53347   -2.7794264036E+01    5.4117863442E+00   -1.8913244302E+02  <-- BEEF
    4988   1.06929   0.24339   1.99279   -3.1236820834E+01    5.9879048697E+00   -1.9257499981E+02  <-- BEEF
    4989   0.93426   1.12487  -0.18197   -2.9211820867E+01    4.7295522086E+00   -1.9054999985E+02  <-- BEEF
    4990   1.02651  -0.12010   3.02030   -2.9655497822E+01    5.4924526036E+00   -1.9099367680E+02  <-- BEEF
    4991   0.93214   0.08190   1.32827   -2.6902780533E+01    6.3488769095E+00   -1.8824095951E+02  <-- BEEF
    4992   0.78870   1.56746  -1.83579   -2.5905769663E+01    4.2325876503E+00   -1.8724394864E+02  <-- BEEF
    4993   0.90301   1.58459  -1.39870   -2.9099518263E+01    4.5197373831E+00   -1.9043769724E+02  <-- BEEF
    4994   1.07862  -0.11040   2.57938   -3.0750490796E+01    6.5174881441E+00   -1.9208866978E+02  <-- BEEF
    4995   0.98134   0.65533   0.95852   -2.9651629501E+01    5.2155826450E+00   -1.9098980848E+02  <-- BEEF
    4996   1.00855   0.07325   2.24532   -2.9335600563E+01    5.7340687885E+00   -1.9067377954E+02  <-- BEEF
    4997   0.94151   1.13863  -0.59360   -2.9200669839E+01    5.3203215975E+00   -1.9053884882E+02  <-- BEEF
    4998   0.99487   0.28824   1.86938   -2.9417429047E+01    5.3721719359E+00   -1.9075560803E+02  <-- BEEF
    4999   0.97908  -0.07534   2.60043   -2.8348879384E+01    5.5218573527E+00   -1.8968705836E+02  <-- BEEF
    5000   0.92181   1.24918  -0.72388   -2.8958226215E+01    4.9386487038E+00   -1.9029640520E+02  <-- BEEF
 
 *********************************************************
                    BEEF completed.
 *********************************************************
 
  Mean total energy =      -190.6571830577 Ha
 Standard deviation =         2.2674151843 Ha
 
 *********************************************************
Initialisation time =      1.65 s
Calculation time    =    491.44 s
Finalisation time   =    398.48 s
Total time          =    891.57 s
Peak Memory Use     = 1159408 kB
  
Overall parallel efficiency rating: Excellent (99%)                             
  
Data was distributed by:-
k-point (28-way); efficiency rating: Excellent (99%)                            
  
Parallel notes:
1) Calculation only took 493.1 s, so efficiency estimates may be inaccurate.    
