 +-------------------------------------------------+
 |                                                 |
 |      CCC   AA    SSS  TTTTT  EEEEE  PPPP        |
 |     C     A  A  S       T    E      P   P       |
 |     C     AAAA   SS     T    EEE    PPPP        |
 |     C     A  A     S    T    E      P           |
 |      CCC  A  A  SSS     T    EEEEE  P           |
 |                                                 |
 +-------------------------------------------------+
 |                                                 |
 | Welcome to Academic Release CASTEP version 19.1 |          
 | Ab Initio Total Energy Program                  |
 |                                                 |
 | Authors:                                        |
 | M. Segall, M. Probert, C. Pickard, P. Hasnip,   |
 | S. Clark, K. Refson, J. R. Yates, M. Payne      |
 |                                                 |
 | Contributors:                                   |
 | P. Lindan, P. Haynes, J. White, V. Milman,      |
 | N. Govind, M. Gibson, P. Tulip, V. Cocula,      |
 | B. Montanari, D. Quigley, M. Glover,            |
 | L. Bernasconi, A. Perlov, M. Plummer,           |
 | E. McNellis, J. Meyer, J. Gale, D. Jochym       |
 | J. Aarons, B. Walker, R. Gillen, D. Jones       |
 | T. Green, I. J. Bush, C. J. Armstrong,          |
 | E. J. Higgins, E. L. Brown, M. S. McFly,        |
 | J. Wilkins, B-C. Shih, P. J. P. Byrne           |
 |                                                 |
 | Copyright (c) 2000 - 2018                       |
 |                                                 |
 |     Distributed under the terms of an           |
 |     Agreement between the United Kingdom        |
 |     Car-Parrinello (UKCP) Consortium,           |
 |     Daresbury Laboratory and Accelrys, Inc.     |
 |                                                 |
 | Please cite                                     |
 |                                                 |
 |     "First principles methods using CASTEP"     |
 |                                                 |
 |         Zeitschrift fuer Kristallographie       |
 |           220(5-6) pp. 567-570 (2005)           |
 |                                                 |
 | S. J. Clark, M. D. Segall, C. J. Pickard,       |
 | P. J. Hasnip, M. J. Probert, K. Refson,         |
 | M. C. Payne                                     |
 |                                                 |
 |       in all publications arising from          |
 |              your use of CASTEP                 |
 |                                                 |
 +-------------------------------------------------+
 |                                                 |
 |              http://www.castep.org              |
 |                                                 |
 +-------------------------------------------------+
 
 
 
 Compiled for linux_x86_64_ifort17 on Wed, 19 Dec 2018 17:46:20 +0000
 from code version Version unavailable
 Compiler: Intel Fortran 17.0.1.132; Optimisation: fast
 MATHLIBS: Intel MKL(2017.0.1) (LAPACK version 3.6.0)
 FFT Lib : mkl
 Fundamental constants values: CODATA 2014
 
 Run started: Wed, 19 Dec 2018 22:56:30 +0000
 
 Pseudo atomic calculation performed for P 3s2 3p3
 
 Converged in 30 iterations to a total energy of -214.2223 eV
 Calculation parallelised over 28 processes.
 Data is distributed by k-point(28-way)

 ************************************ Title ************************************
 

 ***************************** General Parameters ******************************
  
 output verbosity                               : normal  (1)
 write checkpoint data to                       : P-OQMD_24584-CollCode391323.check
 type of calculation                            : single point energy
 stress calculation                             : on
 density difference calculation                 : off
 electron localisation func (ELF) calculation   : off
 Hirshfeld analysis                             : off
 unlimited duration calculation
 timing information                             : on
 memory usage estimate                          : on
 write extra output files                       : on
 write final potential to formatted file        : off
 write final density to formatted file          : off
 write structure in CELL formatted file         : on
 write BibTeX reference list                    : off
 write OTFG pseudopotential files               : on
 write electrostatic potential file             : on
 write bands file                               : on
 checkpoint writing                             : off
  
 output         length unit                     : A
 output           mass unit                     : amu
 output           time unit                     : ps
 output         charge unit                     : e
 output           spin unit                     : hbar/2
 output         energy unit                     : eV
 output          force unit                     : eV/A
 output       velocity unit                     : A/ps
 output       pressure unit                     : GPa
 output     inv_length unit                     : 1/A
 output      frequency unit                     : cm-1
 output force constant unit                     : eV/A**2
 output         volume unit                     : A**3
 output   IR intensity unit                     : (D/A)**2/amu
 output         dipole unit                     : D
 output         efield unit                     : eV/A/e
 output        entropy unit                     : J/mol/K
  
 wavefunctions paging                           : none
 random number generator seed                   : randomised (225630163)
 data distribution                              : optimal for this architecture
 optimization strategy                          : maximize speed(+++)

 *********************** Exchange-Correlation Parameters ***********************
  
 using functional                               : Perdew Burke Ernzerhof
 relativistic treatment                         : Koelling-Harmon
 DFT+D: Semi-empirical dispersion correction    : off

 ************************* Pseudopotential Parameters **************************
  
 pseudopotential representation                 : reciprocal space
 <beta|phi> representation                      : reciprocal space
 spin-orbit coupling                            : off

 **************************** Basis Set Parameters *****************************
  
 plane wave basis set cut-off                   :   650.0000   eV
 size of standard grid                          :     1.7500
 size of   fine   gmax                          :    22.8577   1/A
 largest prime factor in FFT                    :          5
 finite basis set correction                    : none

 **************************** Electronic Parameters ****************************
  
 number of  electrons                           :  210.0    
 net charge of system                           :  0.000    
 treating system as non-spin-polarized
 number of bands                                :        147

 ********************* Electronic Minimization Parameters **********************
  
 Method: Treating system as metallic with density mixing treatment of electrons,
         and number of  SD  steps               :          1
         and number of  CG  steps               :          4
  
 total energy / atom convergence tol.           : 0.1000E-09   eV
 eigen-energy convergence tolerance             : 0.2857E-10   eV
 max force / atom convergence tol.              : ignored
 convergence tolerance window                   :          3   cycles
 max. number of SCF cycles                      :        100
 number of fixed-spin iterations                :         10
 smearing scheme                                : Gaussian
 smearing width                                 : 0.2000       eV
 Fermi energy convergence tolerance             : 0.2721E-13   eV
 periodic dipole correction                     : NONE

 ************************** Density Mixing Parameters **************************
  
 density-mixing scheme                          : Broyden
 max. length of mixing history                  :         20
 charge density mixing amplitude                : 0.8000    
 cut-off energy for mixing                      :  650.0       eV
 charge density mixing g-vector                 :  1.500       1/A

 *********************** Population Analysis Parameters ************************
  
 Population analysis with cutoff                :  3.000       A
 Population analysis output                     : summary and pdos components

 ******************************* Developer Code ********************************
  
 xc_bee: true
 xc_bee_rand_seed : 1
 xc_bee_num_trials: 5000

 *******************************************************************************
  
 
                           -------------------------------
                                      Unit Cell
                           -------------------------------
        Real Lattice(A)                      Reciprocal Lattice(1/A)
    13.3067550     0.0000000     0.0000000        0.472180130   0.065818861   0.218339661
    -1.7992530    12.9077212     0.0000000        0.000000000   0.486777272   0.251796062
    -2.6495564    -3.5114757     6.7884563        0.000000000   0.000000000   0.925569094
 
                       Lattice parameters(A)       Cell Angles
                    a =     13.306755          alpha =  112.626451
                    b =     13.032520          beta  =  109.119894
                    c =      8.089113          gamma =   97.935528
 
                       Current cell volume =          1165.984455       A**3
                                   density =             1.115708   AMU/A**3
                                           =             1.852676     g/cm^3
 
                           -------------------------------
                                     Cell Contents
                           -------------------------------
                         Total number of ions in cell =   42
                      Total number of species in cell =    1
                        Max number of any one species =   42
 
            xxxxxxxxxxxxxxxxxxxxxxxxxxxxxxxxxxxxxxxxxxxxxxxxxxxxxxxxxxxx
            x  Element    Atom        Fractional coordinates of atoms  x
            x            Number           u          v          w      x
            x----------------------------------------------------------x
            x  P            1         0.082836   0.542558   0.132353   x 
            x  P            2         0.149479   0.336124   0.762858   x 
            x  P            3         0.147242   0.388220   0.056075   x 
            x  P            4         0.151414   0.589307   0.762926   x 
            x  P            5         0.149780   0.677669   0.056456   x 
            x  P            6         0.173311   0.077324   0.756868   x 
            x  P            7         0.175685   0.850519   0.755867   x 
            x  P            8         0.174528   0.122219   0.054691   x 
            x  P            9         0.177092   0.946101   0.054182   x 
            x  P           10         0.269988   0.486092   0.793873   x 
            x  P           11         0.272270   0.239071   0.787480   x 
            x  P           12         0.275085   0.731473   0.786071   x 
            x  P           13         0.301549   0.985488   0.765340   x 
            x  P           14         0.327555   0.476028   0.248622   x 
            x  P           15         0.329994   0.731372   0.248490   x 
            x  P           16         0.356917   0.217303   0.234029   x 
            x  P           17         0.360293   0.990825   0.232687   x 
            x  P           18         0.388961   0.580454   0.119583   x 
            x  P           19         0.394838   0.336125   0.114198   x 
            x  P           20         0.397782   0.824852   0.112408   x 
            x  P           21         0.427752   0.081990   0.091942   x 
            x  P           22         0.572248   0.918010   0.908058   x 
            x  P           23         0.602218   0.175148   0.887592   x 
            x  P           24         0.605162   0.663875   0.885802   x 
            x  P           25         0.611039   0.419546   0.880417   x 
            x  P           26         0.639707   0.009175   0.767313   x 
            x  P           27         0.643083   0.782697   0.765971   x 
            x  P           28         0.670006   0.268628   0.751510   x 
            x  P           29         0.672445   0.523972   0.751378   x 
            x  P           30         0.698451   0.014512   0.234660   x 
            x  P           31         0.724915   0.268527   0.213929   x 
            x  P           32         0.727730   0.760929   0.212520   x 
            x  P           33         0.730012   0.513908   0.206127   x 
            x  P           34         0.822908   0.053899   0.945818   x 
            x  P           35         0.825472   0.877781   0.945309   x 
            x  P           36         0.824315   0.149481   0.244133   x 
            x  P           37         0.826689   0.922676   0.243132   x 
            x  P           38         0.850220   0.322331   0.943544   x 
            x  P           39         0.848586   0.410693   0.237074   x 
            x  P           40         0.852758   0.611780   0.943925   x 
            x  P           41         0.850521   0.663876   0.237142   x 
            x  P           42         0.917164   0.457442   0.867647   x 
            xxxxxxxxxxxxxxxxxxxxxxxxxxxxxxxxxxxxxxxxxxxxxxxxxxxxxxxxxxxx
 
 
                         No user defined ionic velocities
 
                           -------------------------------
                                   Details of Species
                           -------------------------------
 
                               Mass of species in AMU
                                    P   30.9737600
 
                          Electric Quadrupole Moment (Barn)
                                    P    1.0000000 No Isotope Defined
 
                          Files used for pseudopotentials:
                                    P P_OTF.usp
 
                           -------------------------------
                              k-Points For BZ Sampling
                           -------------------------------
                       MP grid size for SCF calculation is  5  5  8
                            with an offset of   0.000  0.000  0.000
                       Number of kpoints used =           100
 
                           -------------------------------
                               Symmetry and Constraints
                           -------------------------------
 
                      Maximum deviation from symmetry = 0.188002E-14     ANG
 
                      Number of symmetry operations   =           2
                      Number of ionic constraints     =           3
                      Point group of crystal =     2: Ci, -1, -1
                      Space group of crystal =     2: P-1, -P 1
 
             Set iprint > 1 for details on symmetry rotations/translations
 
                         Centre of mass is constrained
             Set iprint > 1 for details of linear ionic constraints
 
                         Number of cell constraints= 0
                         Cell constraints are:  1 2 3 4 5 6
 
                         External pressure/stress (GPa)
                          0.00000   0.00000   0.00000
                                    0.00000   0.00000
                                              0.00000
  
+---------------- MEMORY AND SCRATCH DISK ESTIMATES PER PROCESS --------------+
|                                                     Memory          Disk    |
| Baseline code, static data and system overhead      341.0 MB         0.0 MB |
| BLAS internal memory storage                          0.0 MB         0.0 MB |
| Model and support data                             1830.9 MB         0.0 MB |
| Electronic energy minimisation requirements        1265.0 MB         0.0 MB |
| Force calculation requirements                       83.5 MB         0.0 MB |
| Stress calculation requirements                      92.3 MB         0.0 MB |
|                                               ----------------------------- |
| Approx. total storage required per process         3436.9 MB         0.0 MB |
|                                                                             |
| Requirements will fluctuate during execution and may exceed these estimates |
+-----------------------------------------------------------------------------+
Calculating total energy with cut-off of  650.000 eV.
------------------------------------------------------------------------ <-- SCF
SCF loop      Energy           Fermi           Energy gain       Timer   <-- SCF
                               energy          per atom          (sec)   <-- SCF
------------------------------------------------------------------------ <-- SCF
Initial  -1.63411300E+003  0.00000000E+000                        36.91  <-- SCF
      1  -8.46981259E+003  3.98328091E+000   1.62754752E+002     284.18  <-- SCF
      2  -9.18882667E+003  1.73932501E+000   1.71193829E+001     477.22  <-- SCF
      3  -9.22516306E+003  1.67014372E+000   8.65152281E-001     687.16  <-- SCF
      4  -9.22389386E+003  1.86939253E+000  -3.02190845E-002     926.47  <-- SCF
      5  -9.22384571E+003  1.96531942E+000  -1.14656424E-003    1207.96  <-- SCF
      6  -9.22386837E+003  1.99244308E+000   5.39638402E-004    1445.85  <-- SCF
      7  -9.22387795E+003  2.01010025E+000   2.28040123E-004    1669.06  <-- SCF
      8  -9.22387992E+003  2.01834118E+000   4.68415468E-005    1892.68  <-- SCF
      9  -9.22388017E+003  2.01904084E+000   5.93597459E-006    2133.85  <-- SCF
     10  -9.22388022E+003  2.01995175E+000   1.21930041E-006    2354.80  <-- SCF
     11  -9.22388022E+003  2.01988562E+000   8.02000113E-008    2619.17  <-- SCF
     12  -9.22388022E+003  2.01983064E+000   2.87050747E-008    2840.67  <-- SCF
     13  -9.22388022E+003  2.01983403E+000   1.62026065E-009    3078.27  <-- SCF
     14  -9.22388022E+003  2.01983099E+000   6.60294426E-010    3290.92  <-- SCF
     15  -9.22388022E+003  2.01982899E+000   1.70551815E-010    3467.27  <-- SCF
     16  -9.22388022E+003  2.01982948E+000   2.53010358E-011    3634.05  <-- SCF
     17  -9.22388022E+003  2.01982975E+000   8.21270885E-012    3800.14  <-- SCF
------------------------------------------------------------------------ <-- SCF
 
Final energy, E             =  -9223.880221684     eV
Final free energy (E-TS)    =  -9223.880221684     eV
(energies not corrected for finite basis set)
 
NB est. 0K energy (E-0.5TS)      =  -9223.880221684     eV
 
 
 ******************** Symmetrised Forces ********************
 *                                                          *
 *               Cartesian components (eV/A)                *
 * -------------------------------------------------------- *
 *                         x            y            z      *
 *                                                          *
 * P               1      0.00387     -0.00108      0.00360 *
 * P               2      0.00111     -0.00402     -0.00510 *
 * P               3     -0.00221     -0.00148     -0.00202 *
 * P               4     -0.00314      0.00139     -0.00624 *
 * P               5     -0.00849      0.00100     -0.00261 *
 * P               6     -0.00096     -0.00048     -0.00822 *
 * P               7     -0.00046     -0.00203     -0.00058 *
 * P               8     -0.00499     -0.00354     -0.00349 *
 * P               9     -0.00324     -0.00118      0.00354 *
 * P              10     -0.00392      0.00485     -0.00337 *
 * P              11      0.00095      0.00354     -0.00205 *
 * P              12      0.00030      0.00378     -0.00409 *
 * P              13     -0.00156      0.00407     -0.00526 *
 * P              14      0.00829      0.00028      0.00231 *
 * P              15     -0.00180     -0.00146      0.00021 *
 * P              16     -0.00079     -0.00173      0.00202 *
 * P              17      0.00668     -0.00001      0.00291 *
 * P              18      0.00109      0.00481      0.00027 *
 * P              19      0.00417      0.00046      0.00446 *
 * P              20      0.00044      0.00004      0.00269 *
 * P              21      0.00127      0.00528     -0.00130 *
 * P              22     -0.00127     -0.00528      0.00130 *
 * P              23     -0.00044     -0.00004     -0.00269 *
 * P              24     -0.00417     -0.00046     -0.00446 *
 * P              25     -0.00109     -0.00481     -0.00027 *
 * P              26     -0.00668      0.00001     -0.00291 *
 * P              27      0.00079      0.00173     -0.00202 *
 * P              28      0.00180      0.00146     -0.00021 *
 * P              29     -0.00829     -0.00028     -0.00231 *
 * P              30      0.00156     -0.00407      0.00526 *
 * P              31     -0.00030     -0.00378      0.00409 *
 * P              32     -0.00095     -0.00354      0.00205 *
 * P              33      0.00392     -0.00485      0.00337 *
 * P              34      0.00324      0.00118     -0.00354 *
 * P              35      0.00499      0.00354      0.00349 *
 * P              36      0.00046      0.00203      0.00058 *
 * P              37      0.00096      0.00048      0.00822 *
 * P              38      0.00849     -0.00100      0.00261 *
 * P              39      0.00314     -0.00139      0.00624 *
 * P              40      0.00221      0.00148      0.00202 *
 * P              41     -0.00111      0.00402      0.00510 *
 * P              42     -0.00387      0.00108     -0.00360 *
 *                                                          *
 ************************************************************
 
 *********** Symmetrised Stress Tensor ***********
 *                                               *
 *          Cartesian components (GPa)           *
 * --------------------------------------------- *
 *             x             y             z     *
 *                                               *
 *  x      0.006434     -0.009370     -0.006903  *
 *  y     -0.009370      0.005095     -0.001663  *
 *  z     -0.006903     -0.001663     -0.017027  *
 *                                               *
 *  Pressure:    0.0018                          *
 *                                               *
 *************************************************
 
 Pseudo atomic calculation performed for P 3s2 3p3
 
 Converged in 30 iterations to a total energy of -214.2223 eV
Charge spilling parameter for spin component 1 = 1.54%
 
            Orbital Populations       
     Ion    Atom   Orbital             Charge
  -------------------------------------------
      P     1      S                    1.781
      P     1      Px                   1.036
      P     1      Py                   0.907
      P     1      Pz                   1.284
      P     2      S                    1.764
      P     2      Px                   1.029
      P     2      Py                   0.940
      P     2      Pz                   1.234
      P     3      S                    1.751
      P     3      Px                   1.049
      P     3      Py                   1.293
      P     3      Pz                   0.923
      P     4      S                    1.763
      P     4      Px                   1.028
      P     4      Py                   0.944
      P     4      Pz                   1.233
      P     5      S                    1.751
      P     5      Px                   1.154
      P     5      Py                   1.188
      P     5      Pz                   0.923
      P     6      S                    1.756
      P     6      Px                   1.044
      P     6      Py                   0.938
      P     6      Pz                   1.247
      P     7      S                    1.755
      P     7      Px                   1.048
      P     7      Py                   0.934
      P     7      Pz                   1.247
      P     8      S                    1.797
      P     8      Px                   1.306
      P     8      Py                   0.973
      P     8      Pz                   0.935
      P     9      S                    1.796
      P     9      Px                   1.202
      P     9      Py                   1.075
      P     9      Pz                   0.935
      P    10      S                    1.774
      P    10      Px                   1.148
      P    10      Py                   0.957
      P    10      Pz                   1.143
      P    11      S                    1.762
      P    11      Px                   1.156
      P    11      Py                   0.939
      P    11      Pz                   1.158
      P    12      S                    1.762
      P    12      Px                   1.169
      P    12      Py                   0.926
      P    12      Pz                   1.156
      P    13      S                    1.792
      P    13      Px                   1.099
      P    13      Py                   0.955
      P    13      Pz                   1.156
      P    14      S                    1.763
      P    14      Px                   0.893
      P    14      Py                   0.938
      P    14      Pz                   1.369
      P    15      S                    1.764
      P    15      Px                   0.886
      P    15      Py                   0.946
      P    15      Pz                   1.369
      P    16      S                    1.756
      P    16      Px                   0.901
      P    16      Py                   0.932
      P    16      Pz                   1.392
      P    17      S                    1.757
      P    17      Px                   0.902
      P    17      Py                   0.927
      P    17      Pz                   1.392
      P    18      S                    1.772
      P    18      Px                   1.351
      P    18      Py                   0.958
      P    18      Pz                   0.943
      P    19      S                    1.761
      P    19      Px                   1.351
      P    19      Py                   0.956
      P    19      Pz                   0.953
      P    20      S                    1.759
      P    20      Px                   1.381
      P    20      Py                   0.931
      P    20      Pz                   0.955
      P    21      S                    1.782
      P    21      Px                   1.316
      P    21      Py                   0.982
      P    21      Pz                   0.950
      P    22      S                    1.782
      P    22      Px                   1.316
      P    22      Py                   0.981
      P    22      Pz                   0.950
      P    23      S                    1.759
      P    23      Px                   1.381
      P    23      Py                   0.931
      P    23      Pz                   0.955
      P    24      S                    1.761
      P    24      Px                   1.351
      P    24      Py                   0.956
      P    24      Pz                   0.953
      P    25      S                    1.772
      P    25      Px                   1.351
      P    25      Py                   0.958
      P    25      Pz                   0.943
      P    26      S                    1.757
      P    26      Px                   0.902
      P    26      Py                   0.927
      P    26      Pz                   1.392
      P    27      S                    1.756
      P    27      Px                   0.901
      P    27      Py                   0.932
      P    27      Pz                   1.392
      P    28      S                    1.764
      P    28      Px                   0.886
      P    28      Py                   0.946
      P    28      Pz                   1.369
      P    29      S                    1.763
      P    29      Px                   0.893
      P    29      Py                   0.939
      P    29      Pz                   1.369
      P    30      S                    1.791
      P    30      Px                   1.099
      P    30      Py                   0.955
      P    30      Pz                   1.156
      P    31      S                    1.762
      P    31      Px                   1.169
      P    31      Py                   0.926
      P    31      Pz                   1.156
      P    32      S                    1.762
      P    32      Px                   1.156
      P    32      Py                   0.939
      P    32      Pz                   1.158
      P    33      S                    1.774
      P    33      Px                   1.147
      P    33      Py                   0.957
      P    33      Pz                   1.143
      P    34      S                    1.796
      P    34      Px                   1.202
      P    34      Py                   1.075
      P    34      Pz                   0.935
      P    35      S                    1.797
      P    35      Px                   1.306
      P    35      Py                   0.973
      P    35      Pz                   0.935
      P    36      S                    1.755
      P    36      Px                   1.048
      P    36      Py                   0.934
      P    36      Pz                   1.247
      P    37      S                    1.756
      P    37      Px                   1.044
      P    37      Py                   0.938
      P    37      Pz                   1.247
      P    38      S                    1.751
      P    38      Px                   1.154
      P    38      Py                   1.188
      P    38      Pz                   0.923
      P    39      S                    1.763
      P    39      Px                   1.028
      P    39      Py                   0.944
      P    39      Pz                   1.233
      P    40      S                    1.751
      P    40      Px                   1.049
      P    40      Py                   1.293
      P    40      Pz                   0.924
      P    41      S                    1.764
      P    41      Px                   1.029
      P    41      Py                   0.940
      P    41      Pz                   1.234
      P    42      S                    1.781
      P    42      Px                   1.036
      P    42      Py                   0.907
      P    42      Pz                   1.284
  -------------------------------------------
                           Total:     209.996
  -------------------------------------------
 
     Atomic Populations (Mulliken)
     -----------------------------
Species          Ion     s      p      d      f     Total  Charge (e)
=====================================================================
  P               1     1.78   3.23   0.00   0.00   5.01    -0.01
  P               2     1.76   3.20   0.00   0.00   4.97     0.03
  P               3     1.75   3.27   0.00   0.00   5.02    -0.02
  P               4     1.76   3.21   0.00   0.00   4.97     0.03
  P               5     1.75   3.27   0.00   0.00   5.02    -0.02
  P               6     1.76   3.23   0.00   0.00   4.98     0.02
  P               7     1.76   3.23   0.00   0.00   4.98     0.02
  P               8     1.80   3.21   0.00   0.00   5.01    -0.01
  P               9     1.80   3.21   0.00   0.00   5.01    -0.01
  P              10     1.77   3.25   0.00   0.00   5.02    -0.02
  P              11     1.76   3.25   0.00   0.00   5.01    -0.01
  P              12     1.76   3.25   0.00   0.00   5.01    -0.01
  P              13     1.79   3.21   0.00   0.00   5.00    -0.00
  P              14     1.76   3.20   0.00   0.00   4.96     0.04
  P              15     1.76   3.20   0.00   0.00   4.96     0.04
  P              16     1.76   3.22   0.00   0.00   4.98     0.02
  P              17     1.76   3.22   0.00   0.00   4.98     0.02
  P              18     1.77   3.25   0.00   0.00   5.02    -0.02
  P              19     1.76   3.26   0.00   0.00   5.02    -0.02
  P              20     1.76   3.27   0.00   0.00   5.03    -0.03
  P              21     1.78   3.25   0.00   0.00   5.03    -0.03
  P              22     1.78   3.25   0.00   0.00   5.03    -0.03
  P              23     1.76   3.27   0.00   0.00   5.03    -0.03
  P              24     1.76   3.26   0.00   0.00   5.02    -0.02
  P              25     1.77   3.25   0.00   0.00   5.02    -0.02
  P              26     1.76   3.22   0.00   0.00   4.98     0.02
  P              27     1.76   3.22   0.00   0.00   4.98     0.02
  P              28     1.76   3.20   0.00   0.00   4.96     0.04
  P              29     1.76   3.20   0.00   0.00   4.96     0.04
  P              30     1.79   3.21   0.00   0.00   5.00    -0.00
  P              31     1.76   3.25   0.00   0.00   5.01    -0.01
  P              32     1.76   3.25   0.00   0.00   5.01    -0.01
  P              33     1.77   3.25   0.00   0.00   5.02    -0.02
  P              34     1.80   3.21   0.00   0.00   5.01    -0.01
  P              35     1.80   3.21   0.00   0.00   5.01    -0.01
  P              36     1.76   3.23   0.00   0.00   4.98     0.02
  P              37     1.76   3.23   0.00   0.00   4.98     0.02
  P              38     1.75   3.27   0.00   0.00   5.02    -0.02
  P              39     1.76   3.21   0.00   0.00   4.97     0.03
  P              40     1.75   3.27   0.00   0.00   5.02    -0.02
  P              41     1.76   3.20   0.00   0.00   4.97     0.03
  P              42     1.78   3.23   0.00   0.00   5.01    -0.01
=====================================================================
 
                 Bond                   Population      Length (A)
======================================================================
              P 16 -- P 19                   0.51        2.20269
              P 24 -- P 27                   0.51        2.20269
              P 32 -- P 37                   0.51        2.20390
              P 6  -- P 11                   0.51        2.20390
              P 32 -- P 41                   0.51        2.20468
              P 2  -- P 11                   0.51        2.20468
              P 31 -- P 36                   0.51        2.20519
              P 7  -- P 12                   0.51        2.20519
              P 4  -- P 12                   0.51        2.20577
              P 31 -- P 39                   0.51        2.20577
              P 17 -- P 20                   0.52        2.20700
              P 23 -- P 26                   0.52        2.20700
              P 24 -- P 29                   0.52        2.20712
              P 14 -- P 19                   0.52        2.20712
              P 15 -- P 20                   0.51        2.21100
              P 23 -- P 28                   0.51        2.21100
              P 6  -- P 13                   0.50        2.21348
              P 30 -- P 37                   0.50        2.21348
              P 40 -- P 41                   0.52        2.21367
              P 2  -- P 3                    0.52        2.21367
              P 38 -- P 39                   0.52        2.21387
              P 4  -- P 5                    0.52        2.21387
              P 7  -- P 13                   0.50        2.21444
              P 30 -- P 36                   0.50        2.21444
              P 5  -- P 15                   0.52        2.21660
              P 28 -- P 38                   0.52        2.21660
              P 29 -- P 40                   0.52        2.21692
              P 3  -- P 14                   0.52        2.21692
              P 16 -- P 21                   0.49        2.22001
              P 22 -- P 27                   0.49        2.22001
              P 22 -- P 26                   0.50        2.22022
              P 17 -- P 21                   0.50        2.22022
              P 4  -- P 10                   0.49        2.22442
              P 33 -- P 39                   0.49        2.22442
              P 33 -- P 41                   0.49        2.22443
              P 2  -- P 10                   0.49        2.22443
              P 25 -- P 29                   0.49        2.22578
              P 14 -- P 18                   0.49        2.22578
              P 25 -- P 28                   0.49        2.22610
              P 15 -- P 18                   0.49        2.22610
              P 27 -- P 35                   0.51        2.23838
              P 8  -- P 16                   0.51        2.23838
              P 26 -- P 34                   0.51        2.24092
              P 9  -- P 17                   0.51        2.24092
              P 7  -- P 9                    0.51        2.24192
              P 34 -- P 36                   0.51        2.24192
              P 38 -- P 42                   0.42        2.24231
              P 1  -- P 5                    0.42        2.24231
              P 40 -- P 42                   0.42        2.24242
              P 1  -- P 3                    0.42        2.24242
              P 35 -- P 37                   0.51        2.24360
              P 6  -- P 8                    0.51        2.24360
              P 1  -- P 42                   0.42        2.25395
              P 25 -- P 33                   0.51        2.27975
              P 10 -- P 18                   0.51        2.27975
              P 12 -- P 20                   0.43        2.29592
              P 23 -- P 31                   0.43        2.29592
              P 24 -- P 32                   0.43        2.29765
              P 11 -- P 19                   0.43        2.29765
              P 34 -- P 35                   0.43        2.29866
              P 8  -- P 9                    0.43        2.29866
              P 22 -- P 30                   0.47        2.30986
              P 13 -- P 21                   0.47        2.30986
              P 16 -- P 17                  -0.20        2.95402
              P 26 -- P 27                  -0.20        2.95402
              P 36 -- P 37                  -0.20        2.95729
              P 6  -- P 7                   -0.20        2.95729
======================================================================
 
     Bayesian Error Estimate (BEE)
     -----------------------------
          Number of BEEF trials:    5000
               BEEF random seed:       1
   Self-consistent total energy:     -338.9713487370 Ha
      Self-consistent xc-energy:      -70.0616529895 Ha
   -----------------------------------------------------------------------------------------------------------
   trial #        BEEF parameters         xc energy (Ha)       xc corr (Ha)       total energy (Ha)           
   -----------------------------------------------------------------------------------------------------------
       1   0.87651   0.94912  -0.36863   -6.4779335700E+01    1.2913164337E+01   -3.3368903145E+02  <-- BEEF
       2   0.95127   0.49788   1.38676   -6.8232880263E+01    1.3448313959E+01   -3.3714257601E+02  <-- BEEF
       3   0.93220   0.69310   0.60979   -6.7507397214E+01    1.3522411891E+01   -3.3641709296E+02  <-- BEEF
       4   1.02841  -0.71849   4.01419   -6.8164561820E+01    1.7699085552E+01   -3.3707425757E+02  <-- BEEF
       5   1.02778   0.17833   2.33146   -7.1787877106E+01    1.5038487125E+01   -3.4069757285E+02  <-- BEEF
       6   1.05225   0.74046   1.35255   -7.5602305880E+01    1.3671461139E+01   -3.4451200163E+02  <-- BEEF
       7   0.93890   0.54894   0.99206   -6.7423095890E+01    1.3800955177E+01   -3.3633279164E+02  <-- BEEF
       8   0.87309  -0.87546   3.12422   -5.7196739213E+01    1.8060225008E+01   -3.2610643496E+02  <-- BEEF
       9   1.03755   0.09830   2.33762   -7.1900860070E+01    1.5827456567E+01   -3.4081055582E+02  <-- BEEF
      10   1.01309  -0.81375   4.24186   -6.6916386533E+01    1.7555971787E+01   -3.3582608228E+02  <-- BEEF
      11   0.95720   0.79686   0.19652   -6.9201049322E+01    1.4255771688E+01   -3.3811074507E+02  <-- BEEF
      12   1.00448   1.17047   0.30088   -7.4295686048E+01    1.2071517735E+01   -3.4320538180E+02  <-- BEEF
      13   0.98528   0.34933   1.57702   -6.9554774798E+01    1.4779187239E+01   -3.3846447055E+02  <-- BEEF
      14   1.06019  -0.39728   3.94001   -7.1863079680E+01    1.6056090943E+01   -3.4077277543E+02  <-- BEEF
      15   1.15730  -1.59678   6.18537   -7.2709456731E+01    2.1527074669E+01   -3.4161915248E+02  <-- BEEF
      16   0.75932   1.24617  -2.10084   -5.7929729415E+01    1.2661460770E+01   -3.2683942516E+02  <-- BEEF
      17   0.99945   0.23278   2.09420   -7.0203778772E+01    1.4656525308E+01   -3.3911347452E+02  <-- BEEF
      18   0.96462   0.76893   0.51799   -6.9783699450E+01    1.3811802713E+01   -3.3869339520E+02  <-- BEEF
      19   0.82793   0.56138  -0.02807   -5.9950573110E+01    1.4067191894E+01   -3.2886026886E+02  <-- BEEF
      20   1.09609   1.23525   0.32279   -8.0119015948E+01    1.3328619436E+01   -3.4902871170E+02  <-- BEEF
      21   1.23472  -1.16641   6.00101   -7.9645396193E+01    2.0225564214E+01   -3.4855509194E+02  <-- BEEF
      22   1.13115  -0.85696   5.00240   -7.4377969018E+01    1.8313547301E+01   -3.4328766477E+02  <-- BEEF
      23   1.16741  -1.07588   5.81659   -7.6017013897E+01    1.8666715900E+01   -3.4492670964E+02  <-- BEEF
      24   1.13329   0.21056   3.03744   -7.8897819542E+01    1.5108290710E+01   -3.4780751529E+02  <-- BEEF
      25   1.05404   0.14659   2.54623   -7.3361040979E+01    1.5262162934E+01   -3.4227073673E+02  <-- BEEF
      26   1.08000   0.98770   0.98599   -7.8347065893E+01    1.3245483131E+01   -3.4725676164E+02  <-- BEEF
      27   0.97783  -1.27926   4.44309   -6.2285259550E+01    1.9915660035E+01   -3.3119495530E+02  <-- BEEF
      28   0.90763   1.24033  -0.89669   -6.7827114397E+01    1.2621228624E+01   -3.3673681014E+02  <-- BEEF
      29   0.74985   1.96078  -2.89316   -6.0811944582E+01    8.9930620887E+00   -3.2972164033E+02  <-- BEEF
      30   1.03205  -0.14490   2.61552   -7.0412203690E+01    1.6883343846E+01   -3.3932189944E+02  <-- BEEF
      31   0.98056   0.01273   1.88910   -6.7595649230E+01    1.6478925665E+01   -3.3650534498E+02  <-- BEEF
      32   0.97392  -0.50655   2.98058   -6.5195464397E+01    1.7588405626E+01   -3.3410516014E+02  <-- BEEF
      33   0.92679   2.02140  -2.48280   -7.2032720406E+01    1.0993966893E+01   -3.4094241615E+02  <-- BEEF
      34   0.91723   0.43452   1.28950   -6.5752804465E+01    1.3504414356E+01   -3.3466250021E+02  <-- BEEF
      35   0.94595   0.53108   1.08002   -6.7819471119E+01    1.3856565053E+01   -3.3672916687E+02  <-- BEEF
      36   1.19502  -1.97531   7.07628   -7.3570311632E+01    2.2937385510E+01   -3.4248000738E+02  <-- BEEF
      37   1.05623   0.42006   1.62352   -7.4213975170E+01    1.5521778929E+01   -3.4312367092E+02  <-- BEEF
      38   0.85867   1.79970  -1.63965   -6.7506311394E+01    9.2369656981E+00   -3.3641600714E+02  <-- BEEF
      39   1.06237  -0.62274   3.73419   -7.0469442524E+01    1.8337270453E+01   -3.3937913827E+02  <-- BEEF
      40   1.06834  -0.32591   3.08495   -7.1945387035E+01    1.7809126116E+01   -3.4085508278E+02  <-- BEEF
      41   0.98351   0.85751   0.67776   -7.1575816072E+01    1.3107888717E+01   -3.4048551182E+02  <-- BEEF
      42   1.01694   1.09738   0.43753   -7.4734292940E+01    1.2534360453E+01   -3.4364398869E+02  <-- BEEF
      43   0.95790   1.61633  -1.24349   -7.2680503488E+01    1.1605726943E+01   -3.4159019924E+02  <-- BEEF
      44   0.83642   1.17901  -1.01270   -6.3140890987E+01    1.1975235875E+01   -3.3205058673E+02  <-- BEEF
      45   1.01204  -1.12116   4.13983   -6.4948863894E+01    2.0140235860E+01   -3.3385855964E+02  <-- BEEF
      46   1.09863  -0.44967   3.81637   -7.3711159431E+01    1.7523944275E+01   -3.4262085518E+02  <-- BEEF
      47   1.06049  -0.13907   3.06478   -7.2560315743E+01    1.6276566585E+01   -3.4147001149E+02  <-- BEEF
      48   1.06813   0.30416   2.44566   -7.5024629086E+01    1.4586884964E+01   -3.4393432483E+02  <-- BEEF
      49   0.99186   0.58988   1.09900   -7.0900185800E+01    1.4265217127E+01   -3.3980988155E+02  <-- BEEF
      50   0.93874   0.05283   1.56639   -6.5047118719E+01    1.6154213521E+01   -3.3395681447E+02  <-- BEEF
      51   0.78543   1.64820  -2.67532   -6.1288043526E+01    1.1539630031E+01   -3.3019773927E+02  <-- BEEF
      52   0.95559  -0.55770   2.83352   -6.3668682204E+01    1.7985391269E+01   -3.3257837795E+02  <-- BEEF
      53   1.07917   0.07837   2.82022   -7.4709918874E+01    1.5594382172E+01   -3.4361961462E+02  <-- BEEF
      54   0.92876   0.64474   0.56400   -6.6975613827E+01    1.3938748488E+01   -3.3588530958E+02  <-- BEEF
      55   0.79359   2.28004  -3.35557   -6.4834290583E+01    8.5714724766E+00   -3.3374398633E+02  <-- BEEF
      56   0.85441   0.99617  -0.95711   -6.3183723700E+01    1.3588786551E+01   -3.3209341945E+02  <-- BEEF
      57   0.93067   0.29059   1.69137   -6.6086932075E+01    1.3864915134E+01   -3.3499662782E+02  <-- BEEF
      58   1.03381   0.62317   1.41314   -7.3879921603E+01    1.4052982584E+01   -3.4278961735E+02  <-- BEEF
      59   0.89419   0.07835   1.41210   -6.2412650573E+01    1.5466081892E+01   -3.3132234632E+02  <-- BEEF
      60   0.90729   0.69472   0.27541   -6.5722256549E+01    1.3854740028E+01   -3.3463195230E+02  <-- BEEF
      61   1.03978   0.01951   2.21341   -7.1450602229E+01    1.6784347025E+01   -3.4036029798E+02  <-- BEEF
      62   0.84411   1.22738  -1.24120   -6.3661259006E+01    1.2328443382E+01   -3.3257095475E+02  <-- BEEF
      63   1.05591   0.12929   2.77457   -7.3588650785E+01    1.4860307107E+01   -3.4249834653E+02  <-- BEEF
      64   0.85772   0.97659  -0.37411   -6.3823671808E+01    1.2346226022E+01   -3.3273336756E+02  <-- BEEF
      65   0.92842   0.11640   1.08969   -6.4352844973E+01    1.6656489085E+01   -3.3326254072E+02  <-- BEEF
      66   1.00231  -0.88721   4.15452   -6.5762748201E+01    1.8123207376E+01   -3.3467244395E+02  <-- BEEF
      67   1.07227  -0.03156   2.80611   -7.3641223205E+01    1.6333776589E+01   -3.4255091895E+02  <-- BEEF
      68   1.05327  -0.94940   4.25486   -6.8509152388E+01    1.9353045659E+01   -3.3741884814E+02  <-- BEEF
      69   1.07128  -1.38661   5.41522   -6.8116599424E+01    2.0149227955E+01   -3.3702629517E+02  <-- BEEF
      70   0.90365  -0.14793   1.88590   -6.2095838443E+01    1.6197679469E+01   -3.3100553419E+02  <-- BEEF
      71   0.88982   1.57348  -1.08334   -6.8552849018E+01    1.0189848102E+01   -3.3746254477E+02  <-- BEEF
      72   0.93048   2.37192  -2.21276   -7.4571031324E+01    7.7121644608E+00   -3.4348072707E+02  <-- BEEF
      73   1.10807  -1.08810   5.37593   -7.2011129236E+01    1.8691276604E+01   -3.4092082498E+02  <-- BEEF
      74   0.92620   0.34490   1.11430   -6.5588813379E+01    1.4804471199E+01   -3.3449850913E+02  <-- BEEF
      75   0.85547   1.25027  -0.81969   -6.4872423709E+01    1.1323729442E+01   -3.3378211946E+02  <-- BEEF
      76   0.99346   1.02070  -0.27775   -7.2208032726E+01    1.4445671167E+01   -3.4111772847E+02  <-- BEEF
      77   0.93329   0.74849   0.11321   -6.7421742214E+01    1.4362097788E+01   -3.3633143796E+02  <-- BEEF
      78   0.75992   0.83583  -1.03052   -5.6578610490E+01    1.3134026071E+01   -3.2548830624E+02  <-- BEEF
      79   0.89040  -0.37870   2.11500   -6.0174586501E+01    1.7127579954E+01   -3.2908428225E+02  <-- BEEF
      80   0.96851   0.34459   1.49473   -6.8455301641E+01    1.4690282696E+01   -3.3736499739E+02  <-- BEEF
      81   0.96933  -0.11463   2.11023   -6.6394087821E+01    1.6678064208E+01   -3.3530378357E+02  <-- BEEF
      82   0.96767  -0.66510   3.86112   -6.4737274822E+01    1.6475458601E+01   -3.3364697057E+02  <-- BEEF
      83   0.93842  -0.00798   1.32487   -6.4439004093E+01    1.7216616400E+01   -3.3334869984E+02  <-- BEEF
      84   1.05545  -0.23278   3.26532   -7.1902900772E+01    1.6391990233E+01   -3.4081259652E+02  <-- BEEF
      85   0.96006  -0.33690   2.82466   -6.5223214015E+01    1.6407927111E+01   -3.3413290976E+02  <-- BEEF
      86   1.02494   1.53715  -0.88008   -7.6530854258E+01    1.2624897580E+01   -3.4544055001E+02  <-- BEEF
      87   1.14829  -0.26662   3.73965   -7.7653216965E+01    1.7296246743E+01   -3.4656291271E+02  <-- BEEF
      88   0.89544   0.69775   0.48261   -6.5237658802E+01    1.3079776548E+01   -3.3414735455E+02  <-- BEEF
      89   1.03576  -0.96496   4.63338   -6.7743868645E+01    1.8180018251E+01   -3.3665356439E+02  <-- BEEF
      90   1.12879  -0.93174   4.78472   -7.3589845929E+01    1.9382871149E+01   -3.4249954168E+02  <-- BEEF
      91   0.95611  -0.24086   1.91006   -6.4677710855E+01    1.7882658807E+01   -3.3358740660E+02  <-- BEEF
      92   0.99185  -1.51467   5.34288   -6.2593670276E+01    1.9742224181E+01   -3.3150336602E+02  <-- BEEF
      93   1.05307  -0.84048   4.35963   -6.9238313301E+01    1.8254513634E+01   -3.3814800905E+02  <-- BEEF
      94   1.08401  -1.23315   4.97630   -6.9351722313E+01    2.0324773178E+01   -3.3826141806E+02  <-- BEEF
      95   0.89433   1.00059  -0.40838   -6.6098551064E+01    1.2970628752E+01   -3.3500824681E+02  <-- BEEF
      96   0.94059   0.25010   1.03306   -6.5805186509E+01    1.6016193172E+01   -3.3471488226E+02  <-- BEEF
      97   1.03134  -0.98198   4.41863   -6.7176874902E+01    1.8760022417E+01   -3.3608657065E+02  <-- BEEF
      98   0.92302   1.05171  -0.47510   -6.8032926556E+01    1.3312567810E+01   -3.3694262230E+02  <-- BEEF
      99   1.00830   0.60717   1.10853   -7.1984237221E+01    1.4433687875E+01   -3.4089393297E+02  <-- BEEF
     100   1.02097   0.15316   1.82085   -7.0747086473E+01    1.6373133164E+01   -3.3965678222E+02  <-- BEEF
     101   0.94785  -0.48621   2.98555   -6.3776708216E+01    1.6906104216E+01   -3.3268640396E+02  <-- BEEF
     102   1.23479  -0.71246   5.23871   -8.1587450015E+01    1.8662636624E+01   -3.5049714576E+02  <-- BEEF
     103   0.91755   0.44738   0.68637   -6.5268987706E+01    1.4920322345E+01   -3.3417868345E+02  <-- BEEF
     104   0.86736   1.29396  -1.28635   -6.5385301713E+01    1.2391005487E+01   -3.3429499746E+02  <-- BEEF
     105   0.96637   2.37131  -2.69928   -7.6224935968E+01    9.6411997432E+00   -3.4513463172E+02  <-- BEEF
     106   1.00341   0.23949   2.28936   -7.0664419841E+01    1.4195357730E+01   -3.3957411559E+02  <-- BEEF
     107   0.85053  -0.75067   3.02112   -5.6496441215E+01    1.6918962172E+01   -3.2540613696E+02  <-- BEEF
     108   0.77757  -0.06496   0.80464   -5.4085860609E+01    1.5779720940E+01   -3.2299555636E+02  <-- BEEF
     109   1.05067   0.11442   2.05083   -7.2497385513E+01    1.6680169867E+01   -3.4140708126E+02  <-- BEEF
     110   0.97914   0.07942   1.71645   -6.7737895512E+01    1.6372630511E+01   -3.3664759126E+02  <-- BEEF
     111   0.81394   0.51470  -0.16740   -5.8714658015E+01    1.4496414479E+01   -3.2762435376E+02  <-- BEEF
     112   0.92959   1.69202  -1.57105   -7.1136187391E+01    1.1287693112E+01   -3.4004588314E+02  <-- BEEF
     113   1.23906  -1.70883   6.95411   -7.7626411608E+01    2.2074556447E+01   -3.4653610736E+02  <-- BEEF
     114   0.85572   1.75206  -2.26388   -6.6453295782E+01    1.1103735334E+01   -3.3536299153E+02  <-- BEEF
     115   1.12260  -1.15502   5.57697   -7.2670203621E+01    1.8986803047E+01   -3.4157989937E+02  <-- BEEF
     116   0.95985   0.27167   1.66305   -6.7675794570E+01    1.4656112731E+01   -3.3658549032E+02  <-- BEEF
     117   0.89519   1.36493  -0.81184   -6.7904791949E+01    1.1211195577E+01   -3.3681448770E+02  <-- BEEF
     118   0.99863   0.34914   1.66800   -7.0430823792E+01    1.4816502637E+01   -3.3934051954E+02  <-- BEEF
     119   1.17126  -1.15782   5.83966   -7.5785223229E+01    1.9311292112E+01   -3.4469491898E+02  <-- BEEF
     120   0.99712  -1.10392   3.58220   -6.3632781132E+01    2.1108351336E+01   -3.3254247688E+02  <-- BEEF
     121   1.03737   0.88830   0.91222   -7.5168963538E+01    1.3348799314E+01   -3.4407865929E+02  <-- BEEF
     122   0.85132   1.97550  -2.38115   -6.7393791534E+01    9.6019520711E+00   -3.3630348728E+02  <-- BEEF
     123   1.01439  -0.49642   3.71664   -6.8355819480E+01    1.6469039776E+01   -3.3726551523E+02  <-- BEEF
     124   1.23262  -0.08947   3.72228   -8.3668705462E+01    1.7648985787E+01   -3.5257840121E+02  <-- BEEF
     125   0.97627   0.38124   1.26825   -6.8913360541E+01    1.5129607678E+01   -3.3782305629E+02  <-- BEEF
     126   1.11006  -0.72971   4.00263   -7.2919709396E+01    1.9424498476E+01   -3.4182940514E+02  <-- BEEF
     127   0.95242   0.55625   1.22930   -6.8493222923E+01    1.3418488736E+01   -3.3740291867E+02  <-- BEEF
     128   0.95596  -0.31477   2.62405   -6.4918665726E+01    1.6659552058E+01   -3.3382836147E+02  <-- BEEF
     129   1.06170  -1.54567   5.35407   -6.6555939282E+01    2.1329149749E+01   -3.3546563503E+02  <-- BEEF
     130   1.14099  -0.90433   5.07585   -7.4752261166E+01    1.8686183092E+01   -3.4366195691E+02  <-- BEEF
     131   0.95760   1.33398  -0.24066   -7.1963607673E+01    1.1250813055E+01   -3.4087330342E+02  <-- BEEF
     132   1.13750  -0.95843   5.11355   -7.4263797429E+01    1.8936610404E+01   -3.4317349318E+02  <-- BEEF
     133   0.93609   0.44250   1.09656   -6.6730947604E+01    1.4297848030E+01   -3.3564064335E+02  <-- BEEF
     134   0.86540   0.00396   1.27703   -6.0142058324E+01    1.5804488788E+01   -3.2905175407E+02  <-- BEEF
     135   1.05787  -0.91954   4.41339   -6.9109030308E+01    1.8819230411E+01   -3.3801872606E+02  <-- BEEF
     136   0.93707  -0.14223   2.03529   -6.4250637286E+01    1.6439904492E+01   -3.3316033303E+02  <-- BEEF
     137   0.94654  -0.20141   2.14217   -6.4565523620E+01    1.6811928379E+01   -3.3347521937E+02  <-- BEEF
     138   1.12189   0.77227   1.26342   -7.9825700838E+01    1.5025114825E+01   -3.4873539659E+02  <-- BEEF
     139   1.05188   0.28476   2.01323   -7.3534276610E+01    1.5495850756E+01   -3.4244397236E+02  <-- BEEF
     140   1.00616  -0.62030   3.39345   -6.6830335981E+01    1.8061644840E+01   -3.3574003173E+02  <-- BEEF
     141   1.01897   1.64278  -0.70234   -7.6968777289E+01    1.1255188208E+01   -3.4587847304E+02  <-- BEEF
     142   0.91666   0.91230   0.30038   -6.7579831785E+01    1.2313863596E+01   -3.3648952753E+02  <-- BEEF
     143   0.80410   1.34374  -1.43959   -6.1787644538E+01    1.1145733783E+01   -3.3069734029E+02  <-- BEEF
     144   1.07326  -0.10690   3.06831   -7.3508112502E+01    1.6273577429E+01   -3.4241780825E+02  <-- BEEF
     145   1.02398  -0.11623   2.22475   -6.9728751887E+01    1.7482056771E+01   -3.3863844763E+02  <-- BEEF
     146   1.07406   0.03215   3.07046   -7.4375143370E+01    1.5221021466E+01   -3.4328483912E+02  <-- BEEF
     147   0.91518   1.31655  -1.09283   -6.8533683410E+01    1.2677803689E+01   -3.3744337916E+02  <-- BEEF
     148   1.23701   0.09440   3.68394   -8.4973061230E+01    1.6425968306E+01   -3.5388275698E+02  <-- BEEF
     149   0.83211   0.15103   1.11585   -5.8882190207E+01    1.4426589669E+01   -3.2779188595E+02  <-- BEEF
     150   0.77849   1.61712  -2.61397   -6.0753408919E+01    1.1486903264E+01   -3.2966310467E+02  <-- BEEF
     151   1.08670  -0.71424   4.35100   -7.1962090976E+01    1.7974343485E+01   -3.4087178672E+02  <-- BEEF
     152   0.99450   1.03636  -0.19319   -7.2442931930E+01    1.4135064951E+01   -3.4135262768E+02  <-- BEEF
     153   1.01108   0.04785   2.16869   -6.9875912643E+01    1.6113330590E+01   -3.3878560839E+02  <-- BEEF
     154   1.11872   0.14202   2.71879   -7.7327006175E+01    1.6141441195E+01   -3.4623670192E+02  <-- BEEF
     155   0.89022   0.48045   0.93999   -6.4089120738E+01    1.3494254256E+01   -3.3299881649E+02  <-- BEEF
     156   0.94851   1.10831  -0.04484   -7.0286290800E+01    1.2306923942E+01   -3.3919598655E+02  <-- BEEF
     157   0.87742   0.47528   0.23136   -6.2622329266E+01    1.5053101882E+01   -3.3153202501E+02  <-- BEEF
     158   0.84349   0.72932   0.25594   -6.2131308666E+01    1.2380343588E+01   -3.3104100441E+02  <-- BEEF
     159   1.04074  -0.75846   3.65318   -6.8313546325E+01    1.9150583946E+01   -3.3722324207E+02  <-- BEEF
     160   1.04679  -0.09625   2.83790   -7.1783526612E+01    1.6246147979E+01   -3.4069322236E+02  <-- BEEF
     161   1.03024   0.52924   1.29787   -7.3005825464E+01    1.4988811424E+01   -3.4191552121E+02  <-- BEEF
     162   1.10455   0.60818   2.18539   -7.8718295548E+01    1.3632171626E+01   -3.4762799130E+02  <-- BEEF
     163   1.12516   0.49912   2.22481   -7.9334427277E+01    1.4773821466E+01   -3.4824412303E+02  <-- BEEF
     164   0.99452  -0.92372   4.03942   -6.4976408715E+01    1.8536306835E+01   -3.3388610446E+02  <-- BEEF
     165   1.03464  -0.19234   2.23128   -6.9917930912E+01    1.8257626015E+01   -3.3882762666E+02  <-- BEEF
     166   0.94114  -0.52360   2.70838   -6.2894317106E+01    1.7752651515E+01   -3.3180401285E+02  <-- BEEF
     167   0.98191  -0.17711   2.32371   -6.6975429631E+01    1.6869896014E+01   -3.3588512538E+02  <-- BEEF
     168   0.97350  -0.32146   2.67004   -6.5960871893E+01    1.6941577309E+01   -3.3487056764E+02  <-- BEEF
     169   1.07037  -0.42542   3.30109   -7.1687557879E+01    1.8069490931E+01   -3.4059725363E+02  <-- BEEF
     170   1.00304  -0.28649   3.04745   -6.8276777094E+01    1.6313493088E+01   -3.3718647284E+02  <-- BEEF
     171   0.92260   0.83893   0.27155   -6.7472295153E+01    1.3063915185E+01   -3.3638199090E+02  <-- BEEF
     172   1.04876  -0.47029   3.42712   -7.0265720158E+01    1.7671064512E+01   -3.3917541591E+02  <-- BEEF
     173   1.15817  -0.64135   4.85112   -7.7099598090E+01    1.7576646603E+01   -3.4600929384E+02  <-- BEEF
     174   1.07542  -0.99480   4.71452   -6.9993536710E+01    1.8987701277E+01   -3.3890323246E+02  <-- BEEF
     175   0.97580  -0.87800   3.47172   -6.3593708298E+01    1.9237012566E+01   -3.3250340405E+02  <-- BEEF
     176   0.97992  -0.08414   2.02597   -6.7119314798E+01    1.6864584186E+01   -3.3602901055E+02  <-- BEEF
     177   0.88329   2.03030  -1.88359   -7.0085105774E+01    8.5696780570E+00   -3.3899480152E+02  <-- BEEF
     178   1.07702  -0.97568   4.71421   -7.0200494350E+01    1.8873939332E+01   -3.3911019010E+02  <-- BEEF
     179   0.98821   1.32224  -0.23289   -7.3713858333E+01    1.1925028828E+01   -3.4262355408E+02  <-- BEEF
     180   1.04536   0.13047   2.43974   -7.2650563401E+01    1.5480378842E+01   -3.4156025915E+02  <-- BEEF
     181   1.07060  -0.70631   3.80200   -7.0530084713E+01    1.8968958653E+01   -3.3943978046E+02  <-- BEEF
     182   1.06295  -0.05061   2.53905   -7.2721914882E+01    1.6963306940E+01   -3.4163161063E+02  <-- BEEF
     183   0.97399  -0.16660   2.32351   -6.6568341544E+01    1.6633893973E+01   -3.3547803729E+02  <-- BEEF
     184   1.07539   0.24266   2.69988   -7.5336432480E+01    1.4564647096E+01   -3.4424612823E+02  <-- BEEF
     185   1.02755  -0.12809   2.80397   -7.0425262573E+01    1.6194862098E+01   -3.3933495832E+02  <-- BEEF
     186   1.05728   0.52439   1.76332   -7.5023548402E+01    1.4395441347E+01   -3.4393324415E+02  <-- BEEF
     187   0.89711   0.73876  -0.33884   -6.4790278603E+01    1.4853087393E+01   -3.3369997435E+02  <-- BEEF
     188   1.02122  -0.20702   2.71095   -6.9497637771E+01    1.6906045157E+01   -3.3840733352E+02  <-- BEEF
     189   1.11289  -0.27167   3.51596   -7.5314245905E+01    1.7195831059E+01   -3.4422394165E+02  <-- BEEF
     190   1.12247  -0.30169   3.70602   -7.5886830066E+01    1.7139123751E+01   -3.4479652581E+02  <-- BEEF
     191   1.07412  -0.87265   4.21367   -7.0154685369E+01    1.9280584292E+01   -3.3906438112E+02  <-- BEEF
     192   0.93530   1.43644  -0.38167   -7.1110947057E+01    1.0380144732E+01   -3.4002064280E+02  <-- BEEF
     193   0.96826  -0.15227   2.22918   -6.6223503312E+01    1.6647289723E+01   -3.3513319906E+02  <-- BEEF
     194   0.93768  -0.30032   2.46985   -6.3773862085E+01    1.6574051664E+01   -3.3268355783E+02  <-- BEEF
     195   1.17450  -0.73620   4.37369   -7.7051065139E+01    1.9817627945E+01   -3.4596076089E+02  <-- BEEF
     196   0.87554   0.34472   0.12948   -6.1645607198E+01    1.6268787848E+01   -3.3055530295E+02  <-- BEEF
     197   1.14166  -0.81926   4.81473   -7.5042009815E+01    1.8702015165E+01   -3.4395170556E+02  <-- BEEF
     198   1.04347  -0.11288   2.52187   -7.1186360821E+01    1.7097948586E+01   -3.4009605657E+02  <-- BEEF
     199   0.89320   0.25200   0.62524   -6.2620503288E+01    1.6086324051E+01   -3.3153019904E+02  <-- BEEF
     200   0.80677   0.44421   0.05103   -5.8085230017E+01    1.4347687559E+01   -3.2699492576E+02  <-- BEEF
     201   0.97434   1.39206  -0.39142   -7.3151088800E+01    1.1513904291E+01   -3.4206078455E+02  <-- BEEF
     202   1.01015   0.09227   2.33219   -7.0238769175E+01    1.5346644719E+01   -3.3914846492E+02  <-- BEEF
     203   0.95714  -0.18915   2.34062   -6.5455027586E+01    1.6431140697E+01   -3.3436472333E+02  <-- BEEF
     204   0.95328   1.35299  -0.17843   -7.1879608457E+01    1.0864725061E+01   -3.4078930420E+02  <-- BEEF
     205   0.92528   0.87072  -0.02444   -6.7534521200E+01    1.3614023187E+01   -3.3644421695E+02  <-- BEEF
     206   0.86149   1.13854  -0.81045   -6.4580320431E+01    1.2273346278E+01   -3.3349001618E+02  <-- BEEF
     207   0.87175   0.03659   1.38499   -6.0812939574E+01    1.5410377635E+01   -3.2972263532E+02  <-- BEEF
     208   0.96872  -1.04592   4.22745   -6.2911703999E+01    1.8491494915E+01   -3.3182139975E+02  <-- BEEF
     209   1.02271  -0.54773   3.79863   -6.8624946344E+01    1.6820375177E+01   -3.3753464209E+02  <-- BEEF
     210   1.10285  -0.09332   2.63979   -7.4928754645E+01    1.7825030828E+01   -3.4383845039E+02  <-- BEEF
     211   1.12237  -1.00862   5.12828   -7.3087733344E+01    1.8985187612E+01   -3.4199742909E+02  <-- BEEF
     212   0.82461   0.91331  -0.95430   -6.0935893178E+01    1.3627351133E+01   -3.2984558893E+02  <-- BEEF
     213   0.88910   0.54276   0.36534   -6.3838725213E+01    1.4432731021E+01   -3.3274842096E+02  <-- BEEF
     214   0.91782   2.11635  -2.22373   -7.2308691755E+01    9.4435456683E+00   -3.4121838750E+02  <-- BEEF
     215   0.81728   0.70203  -0.08759   -6.0090521041E+01    1.2930808674E+01   -3.2900021679E+02  <-- BEEF
     216   1.01093   0.36744   1.48971   -7.1095406322E+01    1.5365005243E+01   -3.4000510207E+02  <-- BEEF
     217   0.96884  -0.11456   2.89845   -6.7120954849E+01    1.4697035466E+01   -3.3603065060E+02  <-- BEEF
     218   1.00086   0.92446   0.27012   -7.2605483900E+01    1.3957612149E+01   -3.4151517965E+02  <-- BEEF
     219   1.07181  -0.68805   3.77660   -7.0684550245E+01    1.8916673273E+01   -3.3959424599E+02  <-- BEEF
     220   0.98180   0.77958   0.52639   -7.0871638693E+01    1.4048496707E+01   -3.3978133444E+02  <-- BEEF
     221   1.16102  -1.27006   5.92968   -7.4605559497E+01    1.9742237966E+01   -3.4351525524E+02  <-- BEEF
     222   0.98929   1.86098  -1.56179   -7.5671270798E+01    1.1150548802E+01   -3.4458096655E+02  <-- BEEF
     223   1.05733  -0.88789   4.14181   -6.9002555320E+01    1.9245525690E+01   -3.3791225107E+02  <-- BEEF
     224   0.91567  -0.31820   2.06146   -6.1974378687E+01    1.7297437691E+01   -3.3088407443E+02  <-- BEEF
     225   1.13222  -0.91064   5.22016   -7.4334552841E+01    1.8200628923E+01   -3.4324424859E+02  <-- BEEF
     226   1.10223  -1.17908   5.17169   -7.0934939265E+01    1.9782257627E+01   -3.3984463501E+02  <-- BEEF
     227   0.97933  -0.15598   2.29673   -6.6921208922E+01    1.6725003920E+01   -3.3583090467E+02  <-- BEEF
     228   1.17524  -0.75169   4.74487   -7.7359485187E+01    1.9022589228E+01   -3.4626918093E+02  <-- BEEF
     229   1.01343   0.98666   0.47856   -7.3915038704E+01    1.3208958748E+01   -3.4282473445E+02  <-- BEEF
     230   1.04938  -0.63266   3.95952   -6.9858003982E+01    1.7593436788E+01   -3.3876769973E+02  <-- BEEF
     231   1.01808   1.35322  -0.24724   -7.5649867510E+01    1.2313277805E+01   -3.4455956326E+02  <-- BEEF
     232   0.87664   1.55321  -1.62391   -6.7135709058E+01    1.1436392127E+01   -3.3604540481E+02  <-- BEEF
     233   0.95155   0.97000   0.61169   -7.0282498352E+01    1.1782704832E+01   -3.3919219410E+02  <-- BEEF
     234   0.99413  -0.01639   2.42787   -6.8743520454E+01    1.5622044398E+01   -3.3765321620E+02  <-- BEEF
     235   1.03791  -0.99351   3.91584   -6.7015520383E+01    2.0234721446E+01   -3.3592521613E+02  <-- BEEF
     236   1.12880  -0.16506   3.58837   -7.6951946132E+01    1.6513710544E+01   -3.4586164188E+02  <-- BEEF
     237   1.19092  -0.87760   5.12967   -7.7916144096E+01    1.9332292103E+01   -3.4682583984E+02  <-- BEEF
     238   1.01012  -0.53695   3.97969   -6.8116607047E+01    1.6036802444E+01   -3.3702630279E+02  <-- BEEF
     239   0.91054   0.79537  -0.13755   -6.6110549107E+01    1.4181930076E+01   -3.3502024485E+02  <-- BEEF
     240   1.01316   0.39223   1.48777   -7.1371380357E+01    1.5224385913E+01   -3.4028107610E+02  <-- BEEF
     241   0.99478  -0.11433   2.28162   -6.8066389735E+01    1.6749306720E+01   -3.3697608548E+02  <-- BEEF
     242   0.93833   0.08525   1.68334   -6.5325310415E+01    1.5605803241E+01   -3.3423500616E+02  <-- BEEF
     243   1.07329   0.67166   1.39284   -7.6481851174E+01    1.4511788963E+01   -3.4539154692E+02  <-- BEEF
     244   0.94293   1.04270   0.10719   -6.9716115136E+01    1.2318267213E+01   -3.3862581088E+02  <-- BEEF
     245   0.92767   0.48635   1.31188   -6.6696523875E+01    1.3258060989E+01   -3.3560621962E+02  <-- BEEF
     246   0.98869   0.59951   0.59922   -7.0290377354E+01    1.5378792391E+01   -3.3920007310E+02  <-- BEEF
     247   0.91720   1.19072  -0.56253   -6.8422031344E+01    1.2353738052E+01   -3.3733172709E+02  <-- BEEF
     248   0.98536  -0.00277   2.17533   -6.8062368334E+01    1.5976259752E+01   -3.3697206408E+02  <-- BEEF
     249   0.98385   0.06436   1.70607   -6.7918092285E+01    1.6606624648E+01   -3.3682778803E+02  <-- BEEF
     250   0.94925   1.44536  -1.16497   -7.1238293722E+01    1.2545580343E+01   -3.4014798947E+02  <-- BEEF
     251   1.02775  -0.59514   3.53019   -6.8387056073E+01    1.7953288166E+01   -3.3729675182E+02  <-- BEEF
     252   0.98820  -0.02482   2.07295   -6.8002662621E+01    1.6456827705E+01   -3.3691235837E+02  <-- BEEF
     253   0.93289   1.37045  -0.81818   -7.0161998648E+01    1.1928449498E+01   -3.3907169440E+02  <-- BEEF
     254   0.94412  -0.76007   3.41725   -6.2359946972E+01    1.7846724578E+01   -3.3126964272E+02  <-- BEEF
     255   0.92876   0.80440   0.07244   -6.7443239561E+01    1.3947285727E+01   -3.3635293531E+02  <-- BEEF
     256   0.96527   0.67147   0.99867   -6.9710410752E+01    1.3367979301E+01   -3.3862010650E+02  <-- BEEF
     257   0.95139   0.26721   1.34229   -6.6841188781E+01    1.5325219707E+01   -3.3575088453E+02  <-- BEEF
     258   0.94504   1.03228  -0.25793   -6.9429760039E+01    1.3352416300E+01   -3.3833945579E+02  <-- BEEF
     259   1.04488  -0.19318   3.32062   -7.1563284828E+01    1.5742555726E+01   -3.4047298058E+02  <-- BEEF
     260   0.97331   0.05776   2.40684   -6.7927260051E+01    1.4697055280E+01   -3.3683695580E+02  <-- BEEF
     261   0.96959   0.18827   1.42751   -6.7535883924E+01    1.6074700999E+01   -3.3644557967E+02  <-- BEEF
     262   1.00267   1.01175   0.74889   -7.3684676158E+01    1.2128928444E+01   -3.4259437191E+02  <-- BEEF
     263   0.99239  -1.07039   4.76597   -6.4684450234E+01    1.7798903528E+01   -3.3359414598E+02  <-- BEEF
     264   1.03804  -0.53451   3.79174   -6.9603457207E+01    1.7038992350E+01   -3.3851315295E+02  <-- BEEF
     265   0.93131   0.71450   0.91017   -6.7868505877E+01    1.2590304701E+01   -3.3677820162E+02  <-- BEEF
     266   1.07672   0.44768   2.46584   -7.6396523681E+01    1.3608975854E+01   -3.4530621943E+02  <-- BEEF
     267   1.09872  -0.72688   3.92004   -7.2186507111E+01    1.9385782144E+01   -3.4109620286E+02  <-- BEEF
     268   1.05042   0.48958   1.74484   -7.4395432763E+01    1.4572531922E+01   -3.4330512851E+02  <-- BEEF
     269   0.99675   0.89180   0.33591   -7.2233616325E+01    1.3961719460E+01   -3.4114331207E+02  <-- BEEF
     270   0.93131   0.69570   0.99747   -6.7841669706E+01    1.2515746119E+01   -3.3675136545E+02  <-- BEEF
     271   0.91448   1.92734  -2.33659   -7.0891252913E+01    1.1104597256E+01   -3.3980094866E+02  <-- BEEF
     272   0.95853   1.96154  -1.60884   -7.4396870552E+01    9.8926412189E+00   -3.4330656630E+02  <-- BEEF
     273   1.03615   0.22439   1.88120   -7.2122124920E+01    1.5977217184E+01   -3.4103182067E+02  <-- BEEF
     274   1.07459  -0.12968   2.95773   -7.3347071588E+01    1.6750508187E+01   -3.4225676734E+02  <-- BEEF
     275   0.91208   0.17780   1.66839   -6.4301739175E+01    1.4417926928E+01   -3.3321143492E+02  <-- BEEF
     276   1.08723   0.18114   2.73299   -7.5707014292E+01    1.5185686830E+01   -3.4461671004E+02  <-- BEEF
     277   1.06653   0.12918   2.41515   -7.3872176839E+01    1.5969362628E+01   -3.4278187259E+02  <-- BEEF
     278   0.89521   0.38309   0.73901   -6.3619225053E+01    1.4839398262E+01   -3.3252892080E+02  <-- BEEF
     279   0.88246   1.61951  -1.70775   -6.7789145135E+01    1.1253843762E+01   -3.3669884088E+02  <-- BEEF
     280   1.07823  -0.16839   3.09627   -7.3467655355E+01    1.6771853273E+01   -3.4237735110E+02  <-- BEEF
     281   0.89685  -0.31369   2.49793   -6.1305937696E+01    1.5800569930E+01   -3.3021563344E+02  <-- BEEF
     282   1.01526   0.24206   1.65323   -7.0771221248E+01    1.5999966715E+01   -3.3968091700E+02  <-- BEEF
     283   1.02254   0.81564   0.89086   -7.3843745278E+01    1.3665068198E+01   -3.4275344103E+02  <-- BEEF
     284   0.99386   0.43326   1.22760   -7.0221209926E+01    1.5180486474E+01   -3.3913090567E+02  <-- BEEF
     285   1.04924   0.22203   1.98866   -7.2986094894E+01    1.5984803173E+01   -3.4189579064E+02  <-- BEEF
     286   0.93311  -0.19400   2.63329   -6.4284893443E+01    1.5262417009E+01   -3.3319458919E+02  <-- BEEF
     287   0.96343  -0.27725   2.72440   -6.5677000376E+01    1.6269090754E+01   -3.3458669612E+02  <-- BEEF
     288   1.11759   0.09717   3.30621   -7.7559939900E+01    1.4993491153E+01   -3.4646963565E+02  <-- BEEF
     289   1.01180   2.25634  -1.56364   -7.9326401023E+01    8.5769713441E+00   -3.4823609677E+02  <-- BEEF
     290   0.95994   0.18647   1.74635   -6.7259952799E+01    1.5100902524E+01   -3.3616964855E+02  <-- BEEF
     291   1.04570   0.04606   2.30850   -7.2048337403E+01    1.6460391299E+01   -3.4095803315E+02  <-- BEEF
     292   0.97846   0.08795   2.18099   -6.8193276849E+01    1.5132667399E+01   -3.3710297260E+02  <-- BEEF
     293   0.95810   0.58063   1.32537   -6.9064730190E+01    1.3103980233E+01   -3.3797442594E+02  <-- BEEF
     294   1.04160   0.06835   2.38160   -7.2007016874E+01    1.6026430828E+01   -3.4091671262E+02  <-- BEEF
     295   1.05354   1.34086   0.28357   -7.8184121052E+01    1.1780014576E+01   -3.4709381680E+02  <-- BEEF
     296   0.82824   1.81320  -2.40107   -6.5055090675E+01    1.0437250973E+01   -3.3396478642E+02  <-- BEEF
     297   0.97284   0.61791   1.08135   -6.9922755403E+01    1.3719995670E+01   -3.3883245115E+02  <-- BEEF
     298   1.01708   0.46574   1.56828   -7.2112660094E+01    1.4538434531E+01   -3.4102235584E+02  <-- BEEF
     299   1.05542  -0.51369   3.33188   -7.0313512847E+01    1.8372424346E+01   -3.3922320859E+02  <-- BEEF
     300   1.04294  -0.47926   3.47580   -6.9915529854E+01    1.7503228307E+01   -3.3882522560E+02  <-- BEEF
     301   1.16970  -1.98224   7.26420   -7.2211444269E+01    2.2021125615E+01   -3.4112114002E+02  <-- BEEF
     302   1.04553   0.51175   1.46172   -7.3964629365E+01    1.5014384763E+01   -3.4287432511E+02  <-- BEEF
     303   1.16102  -1.34737   6.26858   -7.4476241969E+01    1.9485964382E+01   -3.4338593772E+02  <-- BEEF
     304   0.95212   0.88602   0.56084   -6.9773752880E+01    1.2563107003E+01   -3.3868344863E+02  <-- BEEF
     305   1.00329  -0.45061   2.97569   -6.7258046665E+01    1.7752484807E+01   -3.3616774241E+02  <-- BEEF
     306   1.06964   1.31360   0.17257   -7.8870273121E+01    1.2583512248E+01   -3.4777996887E+02  <-- BEEF
     307   0.95909   0.53610   1.29810   -6.8835447900E+01    1.3532124753E+01   -3.3774514365E+02  <-- BEEF
     308   0.93290   0.93964  -0.28048   -6.8145135102E+01    1.3877500070E+01   -3.3705483085E+02  <-- BEEF
     309   1.04433   0.16473   2.25527   -7.2614032404E+01    1.5659353734E+01   -3.4152372815E+02  <-- BEEF
     310   1.03458  -0.04715   2.21510   -7.0752740484E+01    1.7187108109E+01   -3.3966243623E+02  <-- BEEF
     311   1.07323   1.37796  -0.29492   -7.9013353130E+01    1.3331299544E+01   -3.4792304888E+02  <-- BEEF
     312   1.05000  -0.22851   2.97569   -7.1327954428E+01    1.6975986870E+01   -3.4023765018E+02  <-- BEEF
     313   0.72983   1.57527  -1.91917   -5.8294057720E+01    9.1098321351E+00   -3.2720375347E+02  <-- BEEF
     314   1.01504  -0.08180   2.73933   -6.9895218923E+01    1.5755909590E+01   -3.3880491467E+02  <-- BEEF
     315   0.93343   0.03002   1.60966   -6.4640231688E+01    1.6115685877E+01   -3.3354992744E+02  <-- BEEF
     316   1.03057   0.42418   1.70524   -7.2798008172E+01    1.4779796359E+01   -3.4170770392E+02  <-- BEEF
     317   1.11616  -0.88604   4.69279   -7.3023316955E+01    1.9014334483E+01   -3.4193301270E+02  <-- BEEF
     318   0.75269   1.57045  -2.19409   -5.9354712809E+01    1.0284876364E+01   -3.2826440856E+02  <-- BEEF
     319   0.94891   0.42077   0.84569   -6.7121369151E+01    1.5344059030E+01   -3.3603106490E+02  <-- BEEF
     320   1.04958  -0.30111   3.61831   -7.1492156028E+01    1.5916027815E+01   -3.4040185178E+02  <-- BEEF
     321   1.06853  -1.58723   5.67437   -6.7022598295E+01    2.0980657245E+01   -3.3593229404E+02  <-- BEEF
     322   1.05597  -0.27277   2.72051   -7.1176651286E+01    1.8070173662E+01   -3.4008634703E+02  <-- BEEF
     323   1.01473  -0.04424   2.05762   -6.9443934059E+01    1.7166990326E+01   -3.3835362981E+02  <-- BEEF
     324   0.94792   0.75158   0.51495   -6.8690813896E+01    1.3622714007E+01   -3.3760050964E+02  <-- BEEF
     325   0.90658   0.44786   0.69150   -6.4627801748E+01    1.4687519681E+01   -3.3353749750E+02  <-- BEEF
     326   0.95948   0.64141   0.78697   -6.8988131348E+01    1.4012832529E+01   -3.3789782710E+02  <-- BEEF
     327   1.03117  -0.31478   3.27953   -6.9997442971E+01    1.6504285062E+01   -3.3890713872E+02  <-- BEEF
     328   1.10602  -0.90862   4.66201   -7.2260910793E+01    1.9063868831E+01   -3.4117060654E+02  <-- BEEF
     329   1.01153   0.39284   1.61652   -7.1402035081E+01    1.4865677970E+01   -3.4031173083E+02  <-- BEEF
     330   1.12305  -1.30981   5.74795   -7.1950564481E+01    1.9751428445E+01   -3.4086026023E+02  <-- BEEF
     331   0.97561   0.65414   0.99235   -7.0214095825E+01    1.3720135546E+01   -3.3912379157E+02  <-- BEEF
     332   0.82615  -0.67217   2.46418   -5.4981311349E+01    1.7230412074E+01   -3.2389100710E+02  <-- BEEF
     333   1.00384  -0.42544   3.39275   -6.7838315204E+01    1.6528134613E+01   -3.3674801095E+02  <-- BEEF
     334   0.85716   0.25125   0.49947   -6.0362988944E+01    1.5695673658E+01   -3.2927268469E+02  <-- BEEF
     335   1.03956  -1.11169   4.49146   -6.6970162898E+01    1.9731524542E+01   -3.3587985865E+02  <-- BEEF
     336   0.88751   0.62440   0.49246   -6.4346134558E+01    1.3459383504E+01   -3.3325583031E+02  <-- BEEF
     337   0.96769   0.41875   0.90544   -6.8278300604E+01    1.5580687236E+01   -3.3718799635E+02  <-- BEEF
     338   1.08519   0.48936   1.61414   -7.6326299730E+01    1.5586830090E+01   -3.4523599548E+02  <-- BEEF
     339   1.19366  -1.25338   6.22192   -7.6915738174E+01    1.9527991557E+01   -3.4582543392E+02  <-- BEEF
     340   1.07070   0.36744   2.24532   -7.5356904004E+01    1.4654849901E+01   -3.4426659975E+02  <-- BEEF
     341   0.91625   1.16937  -0.78130   -6.8030555330E+01    1.3045214375E+01   -3.3694025108E+02  <-- BEEF
     342   0.85297   0.94937  -0.45447   -6.3304963410E+01    1.2661322331E+01   -3.3221465916E+02  <-- BEEF
     343   0.98761   1.78541  -1.03510   -7.5632680588E+01    1.0378267245E+01   -3.4454237634E+02  <-- BEEF
     344   1.12755   0.16464   2.57967   -7.7849470675E+01    1.6490658766E+01   -3.4675916642E+02  <-- BEEF
     345   1.00199   0.00063   2.45841   -6.9338443948E+01    1.5570723100E+01   -3.3824813970E+02  <-- BEEF
     346   1.01236  -1.06194   4.04080   -6.5220968933E+01    1.9941360612E+01   -3.3413066468E+02  <-- BEEF
     347   1.00306   0.89755   0.72401   -7.3012802787E+01    1.3071956637E+01   -3.4192249853E+02  <-- BEEF
     348   0.95942   0.46651   0.77482   -6.7944421342E+01    1.5378968454E+01   -3.3685411709E+02  <-- BEEF
     349   1.04027   0.39056   1.51485   -7.2991779672E+01    1.5704206001E+01   -3.4190147542E+02  <-- BEEF
     350   1.00560   1.19441   0.02713   -7.4240145821E+01    1.2594969583E+01   -3.4314984157E+02  <-- BEEF
     351   1.13238   0.09289   2.85800   -7.7980020025E+01    1.6438430370E+01   -3.4688971577E+02  <-- BEEF
     352   0.92335   1.44153  -1.47705   -6.9383981548E+01    1.2844310253E+01   -3.3829367730E+02  <-- BEEF
     353   1.11578  -0.35230   3.82711   -7.5309376653E+01    1.7091292533E+01   -3.4421907240E+02  <-- BEEF
     354   0.97391  -0.07678   2.21207   -6.6985349784E+01    1.6224411178E+01   -3.3589504553E+02  <-- BEEF
     355   0.96991  -0.43325   3.19427   -6.5594211518E+01    1.6414769392E+01   -3.3450390727E+02  <-- BEEF
     356   0.94792   0.74587   0.65963   -6.8795707871E+01    1.3304512401E+01   -3.3770540362E+02  <-- BEEF
     357   0.77175   0.92730  -0.78310   -5.8053506890E+01    1.2049449008E+01   -3.2696320264E+02  <-- BEEF
     358   1.03629   1.19208  -0.11191   -7.5909916994E+01    1.3566024963E+01   -3.4481961274E+02  <-- BEEF
     359   0.94726   0.74671   0.98286   -6.9071680120E+01    1.2477013510E+01   -3.3798137587E+02  <-- BEEF
     360   0.97284   0.43315   1.05826   -6.8814088993E+01    1.5190085851E+01   -3.3772378474E+02  <-- BEEF
     361   0.86068   0.60135   0.10245   -6.2249020255E+01    1.4081373971E+01   -3.3115871600E+02  <-- BEEF
     362   0.90066  -0.44290   2.73918   -6.1002744747E+01    1.6260220148E+01   -3.2991244049E+02  <-- BEEF
     363   1.01984   0.13786   1.89904   -7.0665447062E+01    1.6272418032E+01   -3.3957514281E+02  <-- BEEF
     364   1.03432  -0.46152   3.55272   -6.9583395093E+01    1.7005226518E+01   -3.3849309084E+02  <-- BEEF
     365   0.85972   0.19820   0.85692   -6.0544979664E+01    1.5257913002E+01   -3.2945467541E+02  <-- BEEF
     366   1.00827  -0.48782   2.56895   -6.6943686521E+01    1.9151990594E+01   -3.3585338227E+02  <-- BEEF
     367   0.98022   0.21436   1.68141   -6.8561834005E+01    1.5450113016E+01   -3.3747152975E+02  <-- BEEF
     368   1.02942   0.14275   2.45603   -7.1794936986E+01    1.5031377192E+01   -3.4070463273E+02  <-- BEEF
     369   1.01804   0.08811   1.88076   -7.0248933644E+01    1.6662847793E+01   -3.3915862939E+02  <-- BEEF
     370   1.05882  -1.33761   4.78576   -6.7063663978E+01    2.1102586547E+01   -3.3597335973E+02  <-- BEEF
     371   1.00773   0.35449   1.51178   -7.0850800984E+01    1.5345566627E+01   -3.3976049673E+02  <-- BEEF
     372   0.87773   1.62699  -1.22621   -6.8015075165E+01    9.8994905192E+00   -3.3692477091E+02  <-- BEEF
     373   1.21535  -0.14821   3.65538   -8.2236967292E+01    1.7924582138E+01   -3.5114666304E+02  <-- BEEF
     374   1.00286   1.44135  -0.23648   -7.5277267937E+01    1.1312309609E+01   -3.4418696368E+02  <-- BEEF
     375   0.94848   0.44330   1.21469   -6.7582011414E+01    1.4240727863E+01   -3.3649170716E+02  <-- BEEF
[...]
    4824   1.05846  -0.34941   3.26344   -7.1393877515E+01    1.7347754030E+01   -3.4030357326E+02  <-- BEEF
    4825   1.12191  -0.07170   3.06422   -7.6590750582E+01    1.6974572277E+01   -3.4550044633E+02  <-- BEEF
    4826   0.95669   0.91576   0.25950   -6.9930169017E+01    1.3179348322E+01   -3.3883986476E+02  <-- BEEF
    4827   1.01305   1.01129   0.86915   -7.4411762639E+01    1.2036593840E+01   -3.4332145839E+02  <-- BEEF
    4828   0.92614  -0.46850   2.19159   -6.1835456302E+01    1.8327680129E+01   -3.3074515205E+02  <-- BEEF
    4829   1.08994   1.47358  -0.17003   -8.0684290380E+01    1.2617792192E+01   -3.4959398613E+02  <-- BEEF
    4830   0.95116   0.73662   0.57666   -6.8853548473E+01    1.3646612004E+01   -3.3776324422E+02  <-- BEEF
    4831   1.04193   1.00564   0.67014   -7.5896989858E+01    1.3147072376E+01   -3.4480668561E+02  <-- BEEF
    4832   0.91355   0.47214   0.64250   -6.5136208337E+01    1.4761899861E+01   -3.3404590408E+02  <-- BEEF
    4833   1.01953  -0.05774   2.42632   -7.0002476396E+01    1.6443193025E+01   -3.3891217214E+02  <-- BEEF
    4834   0.99728   0.40852   1.63527   -7.0668506031E+01    1.4417672966E+01   -3.3957820178E+02  <-- BEEF
    4835   1.03165  -0.51939   2.84905   -6.8410312986E+01    1.9154228587E+01   -3.3732000873E+02  <-- BEEF
    4836   0.88254   1.91033  -2.08446   -6.9143077741E+01    9.9743427235E+00   -3.3805277349E+02  <-- BEEF
    4837   0.95672   0.27672   1.20825   -6.7083827407E+01    1.5692690251E+01   -3.3599352315E+02  <-- BEEF
    4838   1.01105   0.57691   0.89709   -7.1766343310E+01    1.5247883884E+01   -3.4067603906E+02  <-- BEEF
    4839   1.00348  -0.46455   2.93537   -6.7148511973E+01    1.7963526739E+01   -3.3605820772E+02  <-- BEEF
    4840   0.75550   2.03118  -3.12264   -6.1339842096E+01    9.1399898281E+00   -3.3024953784E+02  <-- BEEF
    4841   1.03869   0.02956   2.36849   -7.1594055401E+01    1.6298272725E+01   -3.4050375115E+02  <-- BEEF
    4842   1.08635  -0.01926   2.94110   -7.4676705415E+01    1.6180080066E+01   -3.4358640116E+02  <-- BEEF
    4843   0.94426  -0.09629   2.59323   -6.5480874768E+01    1.4835556830E+01   -3.3439057052E+02  <-- BEEF
    4844   0.80987   0.35821   0.22258   -5.7927707208E+01    1.4637362896E+01   -3.2683740296E+02  <-- BEEF
    4845   1.07921  -0.18991   2.58686   -7.2910649399E+01    1.8229282252E+01   -3.4182034515E+02  <-- BEEF
    4846   1.03253   1.00192   1.04671   -7.5679526542E+01    1.2048511553E+01   -3.4458922229E+02  <-- BEEF
    4847   1.04951  -0.26909   3.50076   -7.1563812890E+01    1.5963763034E+01   -3.4047350864E+02  <-- BEEF
    4848   0.80983   1.31351  -1.71165   -6.1688314395E+01    1.2170119526E+01   -3.3059801014E+02  <-- BEEF
    4849   1.00228  -0.39670   2.94610   -6.7486827890E+01    1.7394426754E+01   -3.3639652364E+02  <-- BEEF
    4850   1.05419   0.21180   2.49211   -7.3701185433E+01    1.4901811835E+01   -3.4261088118E+02  <-- BEEF
    4851   0.95880  -0.47186   2.93350   -6.4459707794E+01    1.7142763172E+01   -3.3336940354E+02  <-- BEEF
    4852   1.08256  -0.66623   4.35164   -7.2000103514E+01    1.7524106313E+01   -3.4090979926E+02  <-- BEEF
    4853   1.02571   0.59896   1.43105   -7.3275065914E+01    1.4033425390E+01   -3.4218476166E+02  <-- BEEF
    4854   1.12526   0.28431   2.51355   -7.8353959892E+01    1.5695901405E+01   -3.4726365564E+02  <-- BEEF
    4855   0.97224   0.09260   2.07403   -6.7749625750E+01    1.5241731679E+01   -3.3665932150E+02  <-- BEEF
    4856   1.02319   0.17642   1.98118   -7.1168927275E+01    1.5838219068E+01   -3.4007862302E+02  <-- BEEF
    4857   1.09033  -0.67284   4.62564   -7.2683936499E+01    1.7042984489E+01   -3.4159363225E+02  <-- BEEF
    4858   0.96104   0.29786   1.17231   -6.7429774132E+01    1.5706313793E+01   -3.3633946988E+02  <-- BEEF
    4859   1.09667   0.31356   2.07187   -7.6410553419E+01    1.6012639827E+01   -3.4532024917E+02  <-- BEEF
    4860   0.96970   0.78692   0.55110   -7.0222185468E+01    1.3691808784E+01   -3.3913188122E+02  <-- BEEF
    4861   1.08529   0.29991   1.80547   -7.5401529170E+01    1.6558556138E+01   -3.4431122492E+02  <-- BEEF
    4862   0.97356   0.49504   1.37590   -6.9524741117E+01    1.3936818180E+01   -3.3843443686E+02  <-- BEEF
    4863   1.06150  -0.97811   4.62265   -6.9179669372E+01    1.8815206325E+01   -3.3808936512E+02  <-- BEEF
    4864   0.95804   0.81101   0.65193   -6.9770266740E+01    1.3025488138E+01   -3.3867996249E+02  <-- BEEF
    4865   0.86792   0.75811  -0.09790   -6.3406973611E+01    1.3526767686E+01   -3.3231666936E+02  <-- BEEF
    4866   1.01740   0.00008   2.12149   -6.9924068019E+01    1.6721279080E+01   -3.3883376377E+02  <-- BEEF
    4867   0.98733   0.69399   1.03871   -7.1186463339E+01    1.3530829344E+01   -3.4009615909E+02  <-- BEEF
    4868   1.00281   0.74951   0.52992   -7.1941590709E+01    1.4683993737E+01   -3.4085128646E+02  <-- BEEF
    4869   0.96555  -0.46148   3.18490   -6.5161156253E+01    1.6567953703E+01   -3.3407085200E+02  <-- BEEF
    4870   0.97893   0.99485   0.34473   -7.1792994744E+01    1.2800266429E+01   -3.4070269049E+02  <-- BEEF
    4871   1.12045   0.14072   2.61147   -7.7318973248E+01    1.6453848448E+01   -3.4622866900E+02  <-- BEEF
    4872   1.05407   0.05466   2.33933   -7.2623802766E+01    1.6482699826E+01   -3.4153349851E+02  <-- BEEF
    4873   1.08477  -0.28051   2.87380   -7.2982355575E+01    1.8314234064E+01   -3.4189205132E+02  <-- BEEF
    4874   0.99344  -0.46742   2.87043   -6.6475065070E+01    1.7949689737E+01   -3.3538476082E+02  <-- BEEF
    4875   1.06896  -1.14539   5.04619   -6.9043625785E+01    1.9182150589E+01   -3.3795332153E+02  <-- BEEF
    4876   1.07995  -1.32228   5.35627   -6.8951313798E+01    1.9975853054E+01   -3.3786100955E+02  <-- BEEF
    4877   0.95254  -0.69922   3.39552   -6.3195042109E+01    1.7602005487E+01   -3.3210473786E+02  <-- BEEF
    4878   0.86946   1.34421  -1.23708   -6.5852613412E+01    1.1925170024E+01   -3.3476230916E+02  <-- BEEF
    4879   1.17350  -1.88014   7.10222   -7.2880921230E+01    2.1720435072E+01   -3.4179061698E+02  <-- BEEF
    4880   0.97929   0.29879   1.26634   -6.8605425266E+01    1.5824158102E+01   -3.3751512101E+02  <-- BEEF
    4881   0.90114   1.53488  -0.95955   -6.9114447125E+01    1.0398635458E+01   -3.3802414287E+02  <-- BEEF
    4882   0.97515  -0.21065   2.53656   -6.6582614719E+01    1.6460967248E+01   -3.3549231047E+02  <-- BEEF
    4883   0.84471   0.25674   1.01642   -6.0153694987E+01    1.4115472504E+01   -3.2906339073E+02  <-- BEEF
    4884   1.04275  -1.18251   4.61736   -6.6863305058E+01    2.0021034338E+01   -3.3577300081E+02  <-- BEEF
    4885   1.02115  -0.01568   2.27917   -7.0204592675E+01    1.6521467128E+01   -3.3911428842E+02  <-- BEEF
    4886   1.00953  -0.41378   3.27321   -6.8128548229E+01    1.6849945504E+01   -3.3703824398E+02  <-- BEEF
    4887   0.97488   1.44718  -0.69551   -7.3215692484E+01    1.1863511381E+01   -3.4212538823E+02  <-- BEEF
    4888   1.25579  -1.28183   6.74153   -8.0923385305E+01    1.9672003750E+01   -3.4983308105E+02  <-- BEEF
    4889   1.04120  -0.10528   3.22760   -7.1773284358E+01    1.5230625393E+01   -3.4068298011E+02  <-- BEEF
    4890   0.88189   0.80093  -0.50099   -6.4099321731E+01    1.4482885778E+01   -3.3300901748E+02  <-- BEEF
    4891   1.01835  -0.41244   2.95474   -6.8353289619E+01    1.7809993417E+01   -3.3726298537E+02  <-- BEEF
    4892   0.94136   0.13091   1.79086   -6.5875965756E+01    1.5047702028E+01   -3.3478566150E+02  <-- BEEF
    4893   1.01827   0.54412   1.45405   -7.2534284138E+01    1.4248298614E+01   -3.4144397989E+02  <-- BEEF
    4894   1.09427  -0.60239   3.79977   -7.2539486825E+01    1.8646912027E+01   -3.4144918257E+02  <-- BEEF
    4895   0.89603   0.38706   1.24445   -6.4175576852E+01    1.3561496418E+01   -3.3308527260E+02  <-- BEEF
    4896   1.01326   0.39829   1.53732   -7.1460088539E+01    1.5056034603E+01   -3.4036978429E+02  <-- BEEF
    4897   1.04610   0.63008   1.20756   -7.4450882434E+01    1.4756640675E+01   -3.4336057818E+02  <-- BEEF
    4898   0.89072  -0.31000   2.35311   -6.0825922834E+01    1.6013560116E+01   -3.2973561858E+02  <-- BEEF
    4899   0.92172   0.24254   1.56873   -6.5157288344E+01    1.4362412302E+01   -3.3406698409E+02  <-- BEEF
    4900   1.06077   0.23933   2.64039   -7.4394711134E+01    1.4450485192E+01   -3.4330440688E+02  <-- BEEF
    4901   1.10584   0.01569   2.60599   -7.5714189396E+01    1.7135221229E+01   -3.4462388514E+02  <-- BEEF
    4902   0.91814   0.61408   0.41955   -6.6028123988E+01    1.4324754029E+01   -3.3493781974E+02  <-- BEEF
    4903   1.06799  -1.01965   4.48831   -6.9191087478E+01    1.9596767695E+01   -3.3810078323E+02  <-- BEEF
    4904   0.84489   1.74239  -1.76177   -6.6236930968E+01    9.7085818797E+00   -3.3514662672E+02  <-- BEEF
    4905   1.16526   0.22840   2.82180   -8.0688286859E+01    1.6141796554E+01   -3.4959798261E+02  <-- BEEF
    4906   1.01032  -1.12135   4.52958   -6.5219564140E+01    1.9133256586E+01   -3.3412925989E+02  <-- BEEF
    4907   1.01431  -0.37927   3.32203   -6.8661520702E+01    1.6558565708E+01   -3.3757121645E+02  <-- BEEF
    4908   1.11982  -0.09359   3.42778   -7.6686725954E+01    1.6191719801E+01   -3.4559642170E+02  <-- BEEF
    4909   0.95307   1.72506  -1.68901   -7.2606709471E+01    1.1793121101E+01   -3.4151640522E+02  <-- BEEF
    4910   1.05944  -0.00690   2.36201   -7.2601386608E+01    1.7002496081E+01   -3.4151108236E+02  <-- BEEF
    4911   0.87576   0.45939   0.28452   -6.2481350266E+01    1.5008896850E+01   -3.3139104601E+02  <-- BEEF
    4912   0.97089  -0.19610   2.62061   -6.6496434503E+01    1.6055511299E+01   -3.3540613025E+02  <-- BEEF
    4913   1.01560  -0.66311   3.40348   -6.7147150766E+01    1.8550123356E+01   -3.3605684651E+02  <-- BEEF
    4914   0.97401   1.73696  -1.18258   -7.4401221061E+01    1.0848988938E+01   -3.4331091681E+02  <-- BEEF
    4915   0.99779   0.89021   0.59542   -7.2534036192E+01    1.3345434085E+01   -3.4144373194E+02  <-- BEEF
    4916   0.98977   0.05504   2.07168   -6.8564295561E+01    1.5880632849E+01   -3.3747399131E+02  <-- BEEF
    4917   1.03987  -0.33099   3.05982   -7.0206582447E+01    1.7349222663E+01   -3.3911627819E+02  <-- BEEF
    4918   1.00964  -0.04271   2.28694   -6.9371766705E+01    1.6481649233E+01   -3.3828146245E+02  <-- BEEF
    4919   1.03267  -0.27233   3.20591   -7.0265223807E+01    1.6393456501E+01   -3.3917491955E+02  <-- BEEF
    4920   1.25425  -1.03400   5.67593   -8.1267795827E+01    2.0411371102E+01   -3.5017749158E+02  <-- BEEF
    4921   0.96182   1.52460  -0.55867   -7.3029453723E+01    1.0672051098E+01   -3.4193914947E+02  <-- BEEF
    4922   1.05961  -1.28418   5.37840   -6.7992875328E+01    1.9228150956E+01   -3.3690257108E+02  <-- BEEF
    4923   0.92560   1.43220  -1.04735   -6.9873935146E+01    1.1885594035E+01   -3.3878363089E+02  <-- BEEF
    4924   1.12596  -0.26011   3.43097   -7.6073982148E+01    1.7577761163E+01   -3.4498367790E+02  <-- BEEF
    4925   1.02704   0.29648   2.17262   -7.2286008393E+01    1.4517759595E+01   -3.4119570414E+02  <-- BEEF
    4926   0.94150   0.60555   0.46567   -6.7404759694E+01    1.4735427349E+01   -3.3631445544E+02  <-- BEEF
    4927   1.10995  -1.69945   6.67529   -6.9773294917E+01    2.0153016077E+01   -3.3868299066E+02  <-- BEEF
    4928   1.08648  -0.66862   3.86871   -7.1755293770E+01    1.8827256771E+01   -3.4066498952E+02  <-- BEEF
    4929   0.90063   0.29147   1.16027   -6.3805373679E+01    1.4593516716E+01   -3.3271506943E+02  <-- BEEF
    4930   1.11049  -0.08798   2.89627   -7.5657955924E+01    1.7293637534E+01   -3.4456765167E+02  <-- BEEF
    4931   1.02833   0.53013   1.42011   -7.3015236008E+01    1.4638687351E+01   -3.4192493176E+02  <-- BEEF
    4932   1.16730   0.53894   2.36570   -8.2197544287E+01    1.4948481237E+01   -3.5110724003E+02  <-- BEEF
    4933   0.97505   1.03652   0.36536   -7.1828286561E+01    1.2353688693E+01   -3.4073798231E+02  <-- BEEF
    4934   1.16257   0.00654   3.05513   -7.9448068069E+01    1.7201194472E+01   -3.4835776382E+02  <-- BEEF
    4935   1.00517   0.17763   1.80813   -6.9943638612E+01    1.5906166089E+01   -3.3885333436E+02  <-- BEEF
    4936   0.86755   2.32651  -3.00455   -6.9820671274E+01    8.7975636121E+00   -3.3873036702E+02  <-- BEEF
    4937   0.99315  -0.11126   2.93375   -6.8613040658E+01    1.5063219937E+01   -3.3752273641E+02  <-- BEEF
    4938   0.95504  -0.25091   2.31508   -6.4943474245E+01    1.6925746245E+01   -3.3385316999E+02  <-- BEEF
    4939   0.99393   0.54773   1.13901   -7.0813536330E+01    1.4528368262E+01   -3.3972323208E+02  <-- BEEF
    4940   1.08867   0.02362   2.86396   -7.4992036690E+01    1.6090855534E+01   -3.4390173244E+02  <-- BEEF
    4941   0.97857  -0.21038   2.64568   -6.6890789900E+01    1.6253380833E+01   -3.3580048565E+02  <-- BEEF
    4942   0.90206   1.27081  -0.88146   -6.7690937133E+01    1.2240181980E+01   -3.3660063288E+02  <-- BEEF
    4943   1.07147   0.21979   2.14333   -7.4436842980E+01    1.6053786030E+01   -3.4334653873E+02  <-- BEEF
    4944   0.93135  -0.01277   1.88423   -6.4528175460E+01    1.5715087312E+01   -3.3343787121E+02  <-- BEEF
    4945   1.08273  -0.26463   3.31258   -7.3375458578E+01    1.7055506839E+01   -3.4228515433E+02  <-- BEEF
    4946   0.68168   2.88957  -4.92732   -6.0288525454E+01    5.6341165418E+00   -3.2919822120E+02  <-- BEEF
    4947   1.03559  -0.01727   2.49972   -7.1260883914E+01    1.6266965978E+01   -3.4017057966E+02  <-- BEEF
    4948   0.89383   1.89059  -2.01262   -6.9763645534E+01    1.0168169657E+01   -3.3867334128E+02  <-- BEEF
    4949   0.88583   0.49390   0.64803   -6.3628530277E+01    1.4034805383E+01   -3.3253822602E+02  <-- BEEF
    4950   1.08804   0.41618   2.02789   -7.6461445366E+01    1.5168069120E+01   -3.4537114111E+02  <-- BEEF
    4951   0.85388   0.66513  -0.26541   -6.1869007200E+01    1.4379458128E+01   -3.3077870295E+02  <-- BEEF
    4952   1.16519  -0.67678   3.92063   -7.6414936409E+01    2.0312440282E+01   -3.4532463216E+02  <-- BEEF
    4953   0.94342  -0.75069   3.45160   -6.2406505261E+01    1.7675344967E+01   -3.3131620101E+02  <-- BEEF
    4954   1.01119   0.96839   0.30782   -7.3511347425E+01    1.3731328798E+01   -3.4242104317E+02  <-- BEEF
    4955   0.91894   0.43479   1.08067   -6.5655195662E+01    1.4058104003E+01   -3.3456489141E+02  <-- BEEF
    4956   0.85807   1.69310  -1.60697   -6.6875125921E+01    9.9582137940E+00   -3.3578482167E+02  <-- BEEF
    4957   1.16461   0.16641   2.88756   -8.0348133166E+01    1.6438358818E+01   -3.4925782891E+02  <-- BEEF
    4958   1.08262  -0.36076   3.95155   -7.3416479439E+01    1.6190672419E+01   -3.4232617519E+02  <-- BEEF
    4959   1.13153  -0.99533   4.83804   -7.3429259273E+01    1.9789720192E+01   -3.4233895502E+02  <-- BEEF
    4960   1.06723  -0.68622   4.38334   -7.1005838683E+01    1.7295311546E+01   -3.3991553443E+02  <-- BEEF
    4961   1.18805  -1.41218   6.09112   -7.5524789221E+01    2.0958397112E+01   -3.4443448497E+02  <-- BEEF
    4962   0.93535   0.59366   0.73756   -6.7231961038E+01    1.4025418897E+01   -3.3614165679E+02  <-- BEEF
    4963   0.91956   0.61455   0.93162   -6.6606245491E+01    1.3068976818E+01   -3.3551594124E+02  <-- BEEF
    4964   1.08218  -0.44449   3.29380   -7.2267382172E+01    1.8466501175E+01   -3.4117707792E+02  <-- BEEF
    4965   0.91513   1.30409  -0.60241   -6.8927758667E+01    1.1545929765E+01   -3.3783745441E+02  <-- BEEF
    4966   1.09326   0.26756   2.15416   -7.6017630450E+01    1.6091413371E+01   -3.4492732620E+02  <-- BEEF
    4967   0.96394  -0.18743   1.42760   -6.4992749369E+01    1.8835008656E+01   -3.3390244512E+02  <-- BEEF
    4968   0.96553  -0.05418   1.78203   -6.6209733191E+01    1.6961475418E+01   -3.3511942894E+02  <-- BEEF
    4969   0.94243   1.13843   0.09627   -7.0239178520E+01    1.1603990379E+01   -3.3914887427E+02  <-- BEEF
    4970   1.14195   0.47389   2.72278   -8.0657399413E+01    1.4052987122E+01   -3.4956709516E+02  <-- BEEF
    4971   1.07721  -0.53286   3.80624   -7.1945037159E+01    1.7762820799E+01   -3.4085473291E+02  <-- BEEF
    4972   1.13022  -1.40395   6.02857   -7.2090350882E+01    1.9910857780E+01   -3.4100004663E+02  <-- BEEF
    4973   1.06089  -1.49164   5.54836   -6.7011442485E+01    2.0414238507E+01   -3.3592113823E+02  <-- BEEF
    4974   0.88524   1.14553  -0.93369   -6.5908736967E+01    1.2996562755E+01   -3.3481843271E+02  <-- BEEF
    4975   0.99873   0.22954   1.82053   -6.9879668363E+01    1.5351266495E+01   -3.3878936411E+02  <-- BEEF
    4976   0.86853   1.11253  -0.80591   -6.4848312778E+01    1.2599788602E+01   -3.3375800853E+02  <-- BEEF
    4977   0.96119   0.32046   1.01641   -6.7421777156E+01    1.5926212292E+01   -3.3633147290E+02  <-- BEEF
    4978   1.14315   0.57280   2.52759   -8.1122727630E+01    1.3808526755E+01   -3.5003242338E+02  <-- BEEF
    4979   0.85137   0.64603   0.17500   -6.2030414553E+01    1.3374867279E+01   -3.3094011030E+02  <-- BEEF
    4980   1.06469   0.61775   1.87668   -7.6119694790E+01    1.3544534637E+01   -3.4502939054E+02  <-- BEEF
    4981   0.98269   0.15787   2.09132   -6.8768351207E+01    1.4905669962E+01   -3.3767804695E+02  <-- BEEF
    4982   0.92462   0.34021   1.24305   -6.5590715991E+01    1.4487188999E+01   -3.3450041174E+02  <-- BEEF
    4983   0.98321   0.47609   1.81299   -7.0403556158E+01    1.3179336655E+01   -3.3931325191E+02  <-- BEEF
    4984   0.98151   0.03727   2.33877   -6.8226720871E+01    1.5185586125E+01   -3.3713641662E+02  <-- BEEF
    4985   0.94985   0.46180   1.36793   -6.7918829881E+01    1.3743312021E+01   -3.3682852563E+02  <-- BEEF
    4986   0.93858   0.65535   0.53007   -6.7586459922E+01    1.4136151706E+01   -3.3649615567E+02  <-- BEEF
    4987   0.95785  -0.06835   2.53347   -6.6392454263E+01    1.5039552602E+01   -3.3530215001E+02  <-- BEEF
    4988   1.06929   0.24339   1.99279   -7.4302108889E+01    1.6206672083E+01   -3.4321180464E+02  <-- BEEF
    4989   0.93426   1.12487  -0.18197   -6.9409127464E+01    1.2242138063E+01   -3.3831882321E+02  <-- BEEF
    4990   1.02651  -0.12010   3.02030   -7.0618111781E+01    1.5572373785E+01   -3.3952780753E+02  <-- BEEF
    4991   0.93214   0.08190   1.32827   -6.4598792248E+01    1.6397010745E+01   -3.3350848800E+02  <-- BEEF
    4992   0.78870   1.56746  -1.83579   -6.1811943167E+01    1.0122385639E+01   -3.3072163891E+02  <-- BEEF
    4993   0.90301   1.58459  -1.39870   -6.9096279427E+01    1.1153472533E+01   -3.3800597517E+02  <-- BEEF
    4994   1.07862  -0.11040   2.57938   -7.3336572921E+01    1.7628728455E+01   -3.4224626867E+02  <-- BEEF
    4995   0.98134   0.65533   0.95852   -7.0528056841E+01    1.3908757121E+01   -3.3943775259E+02  <-- BEEF
    4996   1.00855   0.07325   2.24532   -6.9949154992E+01    1.5677737163E+01   -3.3885885074E+02  <-- BEEF
    4997   0.94151   1.13863  -0.59360   -6.9524607030E+01    1.3309159289E+01   -3.3843430278E+02  <-- BEEF
    4998   0.99487   0.28824   1.86938   -7.0043471675E+01    1.4704417870E+01   -3.3895316742E+02  <-- BEEF
    4999   0.97908  -0.07534   2.60043   -6.7671986985E+01    1.5344439171E+01   -3.3658168273E+02  <-- BEEF
    5000   0.92181   1.24918  -0.72388   -6.8883579056E+01    1.2401081185E+01   -3.3779327480E+02  <-- BEEF
 
 *********************************************************
                    BEEF completed.
 *********************************************************
 
  Mean total energy =      -338.8153238156 Ha
 Standard deviation =         5.0920229833 Ha
 
 *********************************************************
Initialisation time =     17.35 s
Calculation time    =   5962.09 s
Finalisation time   =   1608.60 s
Total time          =   7588.04 s
Peak Memory Use     = 4035440 kB
  
Overall parallel efficiency rating: Excellent (99%)                             
  
Data was distributed by:-
k-point (28-way); efficiency rating: Excellent (99%)                            
