 +-------------------------------------------------+
 |                                                 |
 |      CCC   AA    SSS  TTTTT  EEEEE  PPPP        |
 |     C     A  A  S       T    E      P   P       |
 |     C     AAAA   SS     T    EEE    PPPP        |
 |     C     A  A     S    T    E      P           |
 |      CCC  A  A  SSS     T    EEEEE  P           |
 |                                                 |
 +-------------------------------------------------+
 |                                                 |
 | Welcome to Academic Release CASTEP version 17.21|          
 | Ab Initio Total Energy Program                  |
 |                                                 |
 | Authors:                                        |
 | M. Segall, M. Probert, C. Pickard, P. Hasnip,   |
 | S. Clark, K. Refson, J. R. Yates, M. Payne      |
 |                                                 |
 | Contributors:                                   |
 | P. Lindan, P. Haynes, J. White, V. Milman,      |
 | N. Govind, M. Gibson, P. Tulip, V. Cocula,      |
 | B. Montanari, D. Quigley, M. Glover,            |
 | L. Bernasconi, A. Perlov, M. Plummer,           |
 | E. McNellis, J. Meyer, J. Gale, D. Jochym       |
 | J. Aarons, B. Walker, R. Gillen, D. Jones       |
 | T. Green, I. J. Bush, C. J. Armstrong,          |
 | E. J. Higgins, E. L. Brown, M. S. McFly,        |
 | J. Wilkins, B-C. Shih, P. J. P. Byrne           |
 |                                                 |
 | Copyright (c) 2000 - 2017                       |
 |                                                 |
 |     Distributed under the terms of an           |
 |     Agreement between the United Kingdom        |
 |     Car-Parrinello (UKCP) Consortium,           |
 |     Daresbury Laboratory and Accelrys, Inc.     |
 |                                                 |
 | Please cite                                     |
 |                                                 |
 |     "First principles methods using CASTEP"     |
 |                                                 |
 |         Zeitschrift fuer Kristallographie       |
 |           220(5-6) pp. 567-570 (2005)           |
 |                                                 |
 | S. J. Clark, M. D. Segall, C. J. Pickard,       |
 | P. J. Hasnip, M. J. Probert, K. Refson,         |
 | M. C. Payne                                     |
 |                                                 |
 |       in all publications arising from          |
 |              your use of CASTEP                 |
 |                                                 |
 +-------------------------------------------------+
 
 
 Compiled for linux_x86_64_ifort16 on Sun, 05 Nov 2017 21:36:35 +0000
 from code version 
 056e886bd5a1+ Castep172_branch Mon, 15 May 2017 14:45:35 +0100
 Compiler: Intel Fortran 16.0.3.210; Optimisation: fast
 MATHLIBS: Intel MKL(11.3.3) (LAPACK version 3.6.0)
 FFT Lib : mkl
 Fundamental constants values: CODATA 2010
 
 Run started: Fri, 08 Jun 2018 19:03:10 +0100
 
 Pseudo atomic calculation performed for Li 1s2 2s1
 
 Converged in 17 iterations to a total energy of -200.4929 eV
 
 
 Pseudo atomic calculation performed for P 3s2 3p3
 
 Converged in 16 iterations to a total energy of -214.2223 eV
 
 
 Pseudo atomic calculation performed for S 3s2 3p4
 
 Converged in 19 iterations to a total energy of -299.4501 eV
 
 Calculation parallelised over 48 processes.
 Data is distributed by G-vector(16-way) and k-point(3-way)

 ************************************ Title ************************************
 

 ***************************** General Parameters ******************************
  
 output verbosity                               : normal  (1)
 write checkpoint data to                       : input-mzs7x1.check
 type of calculation                            : geometry optimization
 stress calculation                             : on
 density difference calculation                 : off
 electron localisation func (ELF) calculation   : off
 Hirshfeld analysis                             : off
 unlimited duration calculation
 timing information                             : on
 memory usage estimate                          : on
 write final potential to formatted file        : off
 write final density to formatted file          : off
 write structure in CELL formatted file         : on
 write BibTeX reference list                    : off
 write OTFG pseudopotential files               : on
 write electrostatic potential file             : on
 write bands file                               : on
 checkpoint writing                             : off
  
 output         length unit                     : A
 output           mass unit                     : amu
 output           time unit                     : ps
 output         charge unit                     : e
 output           spin unit                     : hbar/2
 output         energy unit                     : eV
 output          force unit                     : eV/A
 output       velocity unit                     : A/ps
 output       pressure unit                     : GPa
 output     inv_length unit                     : 1/A
 output      frequency unit                     : cm-1
 output force constant unit                     : eV/A**2
 output         volume unit                     : A**3
 output   IR intensity unit                     : (D/A)**2/amu
 output         dipole unit                     : D
 output         efield unit                     : eV/A/e
 output        entropy unit                     : J/mol/K
  
 wavefunctions paging                           : none
 random number generator seed                   : randomised (190311668)
 data distribution                              : optimal for this architecture
 optimization strategy                          : maximize speed(+++)

 *********************** Exchange-Correlation Parameters ***********************
  
 using functional                               : Perdew Burke Ernzerhof
 relativistic treatment                         : Koelling-Harmon
 DFT+D: Semi-empirical dispersion correction    : off

 ************************* Pseudopotential Parameters **************************
  
 pseudopotential representation                 : reciprocal space
 <beta|phi> representation                      : reciprocal space
 spin-orbit coupling                            : off

 **************************** Basis Set Parameters *****************************
  
 plane wave basis set cut-off                   :   650.0000   eV
 size of standard grid                          :     1.7500
 size of   fine   gmax                          :    22.8577   1/A
 finite basis set correction                    : none

 **************************** Electronic Parameters ****************************
  
 number of  electrons                           :  104.0    
 net charge of system                           :  0.000    
 treating system as non-spin-polarized
 number of bands                                :         73

 ********************* Electronic Minimization Parameters **********************
  
 Method: Treating system as metallic with density mixing treatment of electrons,
         and number of  SD  steps               :          1
         and number of  CG  steps               :          4
  
 total energy / atom convergence tol.           : 0.1000E-04   eV
 eigen-energy convergence tolerance             : 0.1000E-05   eV
 max force / atom convergence tol.              : ignored
 convergence tolerance window                   :          3   cycles
 max. number of SCF cycles                      :        100
 number of fixed-spin iterations                :         10
 smearing scheme                                : Gaussian
 smearing width                                 : 0.2000       eV
 Fermi energy convergence tolerance             : 0.2721E-13   eV
 periodic dipole correction                     : NONE

 ************************** Density Mixing Parameters **************************
  
 density-mixing scheme                          : Broyden
 max. length of mixing history                  :         20
 charge density mixing amplitude                : 0.8000    
 cut-off energy for mixing                      :  650.0       eV

 *********************** Population Analysis Parameters ************************
  
 Population analysis with cutoff                :  3.000       A

 ********************** Geometry Optimization Parameters ***********************
  
 optimization method                            : LBFGS
 max. no. of LBFGS updates                      : unbounded
 variable cell method                           : fixed basis quality
 max. number of steps                           :          2
 estimated bulk modulus                         :  500.0       GPa
 estimated <frequency>                          :  1668.       cm-1
 geom line minimiser                            : on
 with line minimiser tolerance                  :     0.4000
 total energy convergence tolerance             : 0.2000E-04   eV/atom
        max ionic |force| tolerance             : 0.5000E-01   eV/A
 max ionic |displacement| tolerance             : 0.1000E-02   A
   max |stress component| tolerance             : 0.1000       GPa
 convergence tolerance window                   :          2   steps
 backup results every                           : 2147483647   steps
 write geom trajectory file                     : on

 *******************************************************************************
  
 
                           -------------------------------
                                      Unit Cell
                           -------------------------------
        Real Lattice(A)                      Reciprocal Lattice(1/A)
   5.8217750   0.0000000   0.0000000        1.0792559   0.0000000   0.0000000
   0.0000000   5.8217750   0.0000000        0.0000000   1.0792559   0.0000000
   0.0000000   0.0000000  12.2976280        0.0000000   0.0000000   0.5109266
 
                       Lattice parameters(A)       Cell Angles
                    a =    5.821775          alpha =   90.000000
                    b =    5.821775          beta  =   90.000000
                    c =   12.297628          gamma =   90.000000
 
                       Current cell volume =  416.804295       A**3
                                   density =    0.938040   AMU/A**3
                                           =    1.557652     g/cm^3
 
                           -------------------------------
                                     Cell Contents
                           -------------------------------
                         Total number of ions in cell =   28
                      Total number of species in cell =    3
                        Max number of any one species =   20
 
            xxxxxxxxxxxxxxxxxxxxxxxxxxxxxxxxxxxxxxxxxxxxxxxxxxxxxxxxxxxx
            x  Element    Atom        Fractional coordinates of atoms  x
            x            Number           u          v          w      x
            x----------------------------------------------------------x
            x  Li           1         0.265181   0.765181   0.454673   x 
            x  Li           2         0.734819   0.234819   0.454673   x 
            x  Li           3         0.234819   0.265181   0.454673   x 
            x  Li           4         0.765181   0.734819   0.454673   x 
            x  Li           5         0.765181   0.265181   0.954673   x 
            x  Li           6         0.234819   0.734819   0.954673   x 
            x  Li           7         0.734819   0.765181   0.954673   x 
            x  Li           8         0.265181   0.234819   0.954673   x 
            x  Li           9         0.204071   0.704071   0.232095   x 
            x  Li          10         0.795929   0.295929   0.232095   x 
            x  Li          11         0.295929   0.204071   0.232095   x 
            x  Li          12         0.704071   0.795929   0.232095   x 
            x  Li          13         0.704071   0.204071   0.732095   x 
            x  Li          14         0.295929   0.795929   0.732095   x 
            x  Li          15         0.795929   0.704071   0.732095   x 
            x  Li          16         0.204071   0.295929   0.732095   x 
            x  Li          17         0.000000   0.000000   0.094031   x 
            x  Li          18         0.000000   0.000000   0.594031   x 
            x  Li          19         0.500000   0.500000   0.594031   x 
            x  Li          20         0.500000   0.500000   0.094031   x 
            x  P            1         0.500000   0.000000   0.084923   x 
            x  P            2         0.000000   0.500000   0.084923   x 
            x  P            3         0.000000   0.500000   0.584923   x 
            x  P            4         0.500000   0.000000   0.584923   x 
            x  S            1         0.000000   0.000000   0.337301   x 
            x  S            2         0.000000   0.000000   0.837301   x 
            x  S            3         0.500000   0.500000   0.837301   x 
            x  S            4         0.500000   0.500000   0.337301   x 
            xxxxxxxxxxxxxxxxxxxxxxxxxxxxxxxxxxxxxxxxxxxxxxxxxxxxxxxxxxxx
 
 
                         No user defined ionic velocities
 
                           -------------------------------
                                   Details of Species
                           -------------------------------
 
                               Mass of species in AMU
                                    Li    6.9410000
                                    P   30.9737600
                                    S   32.0660000
 
                          Electric Quadrupole Moment (Barn)
                                    Li   -0.0401000 Isotope  7
                                    P    1.0000000 No Isotope Defined
                                    S   -0.0678000 Isotope 33
 
                          Files used for pseudopotentials:
                                    Li Li_C17_PBE_OTF.usp
                                    P P_C17_PBE_OTF.usp
                                    S S_C17_PBE_OTF.usp
 
                           -------------------------------
                              k-Points For BZ Sampling
                           -------------------------------
                       MP grid size for SCF calculation is  4  4  2
                            with an offset of   0.000  0.000  0.000
                       Number of kpoints used =             3
 
                           -------------------------------
                               Symmetry and Constraints
                           -------------------------------
 
                      Cell is a supercell containing 2 primitive cells
                      Maximum deviation from symmetry = 0.273062E-14     ANG
 
                      Number of symmetry operations   =          16
                      Number of ionic constraints     =           3
                      Point group of crystal =    12: C4v, 4mm, 4 mm
                      Space group of crystal =   108: I4cm, I 4 -2c
 
             Set iprint > 1 for details on symmetry rotations/translations
 
                         Centre of mass is constrained
             Set iprint > 1 for details of linear ionic constraints
 
                         Number of cell constraints= 4
                         Cell constraints are:  1 1 3 0 0 0
 
                         External pressure/stress (GPa)
                          0.00000   0.00000   0.00000
                                    0.00000   0.00000
                                              0.00000
  
+---------------- MEMORY AND SCRATCH DISK ESTIMATES PER PROCESS --------------+
|                                                     Memory          Disk    |
| Baseline code, static data and system overhead      297.0 MB         0.0 MB |
| BLAS internal memory storage                          0.0 MB         0.0 MB |
| Model and support data                               90.2 MB         0.0 MB |
| Electronic energy minimisation requirements          10.8 MB         0.0 MB |
| Force calculation requirements                        2.2 MB         0.0 MB |
| Stress calculation requirements                       2.4 MB         0.0 MB |
|                                               ----------------------------- |
| Approx. total storage required per process          398.0 MB         0.0 MB |
|                                                                             |
| Requirements will fluctuate during execution and may exceed these estimates |
+-----------------------------------------------------------------------------+
Calculating total energy with cut-off of  650.000 eV.
------------------------------------------------------------------------ <-- SCF
SCF loop      Energy           Fermi           Energy gain       Timer   <-- SCF
                               energy          per atom          (sec)   <-- SCF
------------------------------------------------------------------------ <-- SCF
Initial  -2.75032956E+003  0.00000000E+000                        40.67  <-- SCF
      1  -5.80042312E+003  6.53540629E+000   1.08931913E+002      49.93  <-- SCF
      2  -6.15530232E+003  2.88632376E+000   1.26742572E+001      56.05  <-- SCF
      3  -6.17008317E+003  3.14617968E+000   5.27887495E-001      62.66  <-- SCF
      4  -6.16780572E+003  3.45374326E+000  -8.13375064E-002      71.59  <-- SCF
      5  -6.16778410E+003  3.50333063E+000  -7.72110067E-004      81.05  <-- SCF
      6  -6.16777272E+003  3.58336487E+000  -4.06537324E-004      90.09  <-- SCF
      7  -6.16777227E+003  3.60068286E+000  -1.59152217E-005      98.87  <-- SCF
      8  -6.16777221E+003  3.60649616E+000  -2.38411119E-006     106.81  <-- SCF
      9  -6.16777220E+003  3.60773839E+000  -2.68907824E-007     113.61  <-- SCF
------------------------------------------------------------------------ <-- SCF
 
Final energy, E             =  -6167.772197507     eV
Final free energy (E-TS)    =  -6167.772197507     eV
(energies not corrected for finite basis set)
 
NB est. 0K energy (E-0.5TS)      =  -6167.772197507     eV
 

WARNING - doing cell minimisation without finite basis correction:
        => now searching for a stationary and not minimum energy
 
+---------------- MEMORY AND SCRATCH DISK ESTIMATES PER PROCESS --------------+
|                                                     Memory          Disk    |
| Model and support data                              100.7 MB         0.0 MB |
| Electronic energy minimisation requirements          10.8 MB         0.0 MB |
| Geometry minimisation requirements                   12.2 MB         0.0 MB |
|                                               ----------------------------- |
| Approx. total storage required per process          123.7 MB         0.0 MB |
|                                                                             |
| Requirements will fluctuate during execution and may exceed these estimates |
+-----------------------------------------------------------------------------+
 
 
 ************************** Constrained Symmetrised Forces **************************
 *                                                                                  *
 *                           Cartesian components (eV/A)                            *
 * -------------------------------------------------------------------------------- *
 *                         x                    y                    z              *
 *                                                                                  *
 * Li              1     -0.04812             -0.04812              0.19739         *
 * Li              2      0.04812              0.04812              0.19739         *
 * Li              3      0.04812             -0.04812              0.19739         *
 * Li              4     -0.04812              0.04812              0.19739         *
 * Li              5     -0.04812             -0.04812              0.19739         *
 * Li              6      0.04812              0.04812              0.19739         *
 * Li              7      0.04812             -0.04812              0.19739         *
 * Li              8     -0.04812              0.04812              0.19739         *
 * Li              9      0.07701              0.07701             -0.12354         *
 * Li             10     -0.07701             -0.07701             -0.12354         *
 * Li             11     -0.07701              0.07701             -0.12354         *
 * Li             12      0.07701             -0.07701             -0.12354         *
 * Li             13      0.07701              0.07701             -0.12354         *
 * Li             14     -0.07701             -0.07701             -0.12354         *
 * Li             15     -0.07701              0.07701             -0.12354         *
 * Li             16      0.07701             -0.07701             -0.12354         *
 * Li             17     -0.00000              0.00000             -0.08540         *
 * Li             18     -0.00000              0.00000             -0.08540         *
 * Li             19     -0.00000              0.00000             -0.08540         *
 * Li             20     -0.00000              0.00000             -0.08540         *
 * P               1     -0.00000              0.00000             -0.03876         *
 * P               2     -0.00000              0.00000             -0.03876         *
 * P               3     -0.00000              0.00000             -0.03876         *
 * P               4     -0.00000              0.00000             -0.03876         *
 * S               1     -0.00000              0.00000             -0.02355         *
 * S               2     -0.00000              0.00000             -0.02355         *
 * S               3     -0.00000              0.00000             -0.02355         *
 * S               4     -0.00000              0.00000             -0.02355         *
 *                                                                                  *
 ************************************************************************************
 
 *********** Symmetrised Stress Tensor ***********
 *                                               *
 *          Cartesian components (GPa)           *
 * --------------------------------------------- *
 *             x             y             z     *
 *                                               *
 *  x      0.833761      0.000000      0.000000  *
 *  y      0.000000      0.833761      0.000000  *
 *  z      0.000000      0.000000     -0.789745  *
 *                                               *
 *  Pressure:   -0.2926                          *
 *                                               *
 *************************************************
 LBFGS: finished iteration     0 with enthalpy= -6.16777220E+003 eV
  
 +-----------+-----------------+-----------------+------------+-----+ <-- LBFGS
 | Parameter |      value      |    tolerance    |    units   | OK? | <-- LBFGS
 +-----------+-----------------+-----------------+------------+-----+ <-- LBFGS
 |  dE/ion   |   0.000000E+000 |   2.000000E-005 |         eV | No  | <-- LBFGS
 |  |F|max   |   2.087953E-001 |   5.000000E-002 |       eV/A | No  | <-- LBFGS
 |  |dR|max  |   2.386938E-015 |   1.000000E-003 |          A | No  | <-- LBFGS
 |   Smax    |   8.337607E-001 |   1.000000E-001 |        GPa | No  | <-- LBFGS
 +-----------+-----------------+-----------------+------------+-----+ <-- LBFGS
  

================================================================================
 Starting LBFGS iteration          1 ...
================================================================================
  
 +------------+-------------+-------------+-----------------+ <-- min LBFGS
 |    Step    |   lambda    |   F.delta'  |    enthalpy     | <-- min LBFGS
 +------------+-------------+-------------+-----------------+ <-- min LBFGS
 |  previous  |    0.000000 |    0.254770 |    -6167.772198 | <-- min LBFGS
 +------------+-------------+-------------+-----------------+ <-- min LBFGS
  

--------------------------------------------------------------------------------
 LBFGS: starting iteration         1 with trial guess (lambda=  1.000000)
--------------------------------------------------------------------------------
 
+---------------- MEMORY AND SCRATCH DISK ESTIMATES PER PROCESS --------------+
|                                                     Memory          Disk    |
| Model and support data                              100.7 MB         0.0 MB |
| Electronic energy minimisation requirements          10.8 MB         0.0 MB |
| Geometry minimisation requirements                   12.2 MB         0.0 MB |
|                                               ----------------------------- |
| Approx. total storage required per process          123.7 MB         0.0 MB |
|                                                                             |
| Requirements will fluctuate during execution and may exceed these estimates |
+-----------------------------------------------------------------------------+
 
 
                           -------------------------------
                                      Unit Cell
                           -------------------------------
        Real Lattice(A)              Reciprocal Lattice(1/A)
   5.8185390   0.0000000   0.0000000        1.0798562   0.0000000   0.0000000
   0.0000000   5.8185390   0.0000000        0.0000000   1.0798562   0.0000000
   0.0000000   0.0000000  12.3041027        0.0000000   0.0000000   0.5106577
 
                       Lattice parameters(A)       Cell Angles
                    a =    5.818539          alpha =   90.000000
                    b =    5.818539          beta  =   90.000000
                    c =   12.304103          gamma =   90.000000
 
                Current cell volume =  416.560272 A**3
 
                           -------------------------------
                                     Cell Contents
                           -------------------------------
 
            xxxxxxxxxxxxxxxxxxxxxxxxxxxxxxxxxxxxxxxxxxxxxxxxxxxxxxxxxxxxxxxxx
            x  Element         Atom        Fractional coordinates of atoms  x
            x                 Number           u          v          w      x
            x---------------------------------------------------------------x
            x  Li                1         0.265123   0.765123   0.454785   x
            x  Li                2         0.734877   0.234877   0.454785   x
            x  Li                3         0.234877   0.265123   0.454785   x
            x  Li                4         0.765123   0.734877   0.454785   x
            x  Li                5         0.765123   0.265123   0.954785   x
            x  Li                6         0.234877   0.734877   0.954785   x
            x  Li                7         0.734877   0.765123   0.954785   x
            x  Li                8         0.265123   0.234877   0.954785   x
            x  Li                9         0.204164   0.704164   0.232025   x
            x  Li               10         0.795836   0.295836   0.232025   x
            x  Li               11         0.295836   0.204164   0.232025   x
            x  Li               12         0.704164   0.795836   0.232025   x
            x  Li               13         0.704164   0.204164   0.732025   x
            x  Li               14         0.295836   0.795836   0.732025   x
            x  Li               15         0.795836   0.704164   0.732025   x
            x  Li               16         0.204164   0.295836   0.732025   x
            x  Li               17         0.000000   0.000000   0.093982   x
            x  Li               18         0.000000   0.000000   0.593982   x
            x  Li               19         0.500000   0.500000   0.593982   x
            x  Li               20         0.500000   0.500000   0.093982   x
            x  P                 1         0.500000   0.000000   0.084901   x
            x  P                 2        -0.000000   0.500000   0.084901   x
            x  P                 3         0.000000   0.500000   0.584901   x
            x  P                 4         0.500000  -0.000000   0.584901   x
            x  S                 1         0.000000   0.000000   0.337288   x
            x  S                 2         0.000000  -0.000000   0.837288   x
            x  S                 3         0.500000   0.500000   0.837288   x
            x  S                 4         0.500000   0.500000   0.337288   x
            xxxxxxxxxxxxxxxxxxxxxxxxxxxxxxxxxxxxxxxxxxxxxxxxxxxxxxxxxxxxxxxxx
 
 
------------------------------------------------------------------------ <-- SCF
SCF loop      Energy           Fermi           Energy gain       Timer   <-- SCF
                               energy          per atom          (sec)   <-- SCF
------------------------------------------------------------------------ <-- SCF
Initial  -6.16775837E+003  0.00000000E+000                       161.54  <-- SCF
      1  -6.16778060E+003  3.60675411E+000   7.94075027E-004     168.64  <-- SCF
      2  -6.16778126E+003  3.60675340E+000   2.32397003E-005     176.65  <-- SCF
      3  -6.16777939E+003  3.60943983E+000  -6.65576789E-005     184.40  <-- SCF
      4  -6.16777921E+003  3.61070474E+000  -6.32547448E-006     191.34  <-- SCF
      5  -6.16777920E+003  3.61109071E+000  -3.56680953E-007     197.10  <-- SCF
------------------------------------------------------------------------ <-- SCF
 
Final energy, E             =  -6167.779204736     eV
Final free energy (E-TS)    =  -6167.779204736     eV
(energies not corrected for finite basis set)
 
NB est. 0K energy (E-0.5TS)      =  -6167.779204736     eV
 
 
 ************************** Constrained Symmetrised Forces **************************
 *                                                                                  *
 *                           Cartesian components (eV/A)                            *
 * -------------------------------------------------------------------------------- *
 *                         x                    y                    z              *
 *                                                                                  *
 * Li              1     -0.05074             -0.05074              0.18559         *
 * Li              2      0.05074              0.05074              0.18559         *
 * Li              3      0.05074             -0.05074              0.18559         *
 * Li              4     -0.05074              0.05074              0.18559         *
 * Li              5     -0.05074             -0.05074              0.18559         *
 * Li              6      0.05074              0.05074              0.18559         *
 * Li              7      0.05074             -0.05074              0.18559         *
 * Li              8     -0.05074              0.05074              0.18559         *
 * Li              9      0.07933              0.07933             -0.11454         *
 * Li             10     -0.07933             -0.07933             -0.11454         *
 * Li             11     -0.07933              0.07933             -0.11454         *
 * Li             12      0.07933             -0.07933             -0.11454         *
 * Li             13      0.07933              0.07933             -0.11454         *
 * Li             14     -0.07933             -0.07933             -0.11454         *
 * Li             15     -0.07933              0.07933             -0.11454         *
 * Li             16      0.07933             -0.07933             -0.11454         *
 * Li             17      0.00000             -0.00000             -0.09192         *
 * Li             18      0.00000             -0.00000             -0.09192         *
 * Li             19      0.00000             -0.00000             -0.09192         *
 * Li             20      0.00000             -0.00000             -0.09192         *
 * P               1      0.00000             -0.00000             -0.03173         *
 * P               2      0.00000             -0.00000             -0.03173         *
 * P               3      0.00000             -0.00000             -0.03173         *
 * P               4      0.00000             -0.00000             -0.03173         *
 * S               1      0.00000             -0.00000             -0.01844         *
 * S               2      0.00000             -0.00000             -0.01844         *
 * S               3      0.00000             -0.00000             -0.01844         *
 * S               4      0.00000             -0.00000             -0.01844         *
 *                                                                                  *
 ************************************************************************************
 
 *********** Symmetrised Stress Tensor ***********
 *                                               *
 *          Cartesian components (GPa)           *
 * --------------------------------------------- *
 *             x             y             z     *
 *                                               *
 *  x      0.802039      0.000000      0.000000  *
 *  y      0.000000      0.802039      0.000000  *
 *  z      0.000000      0.000000     -0.782814  *
 *                                               *
 *  Pressure:   -0.2738                          *
 *                                               *
 *************************************************
  
 +------------+-------------+-------------+-----------------+ <-- min LBFGS
 |    Step    |   lambda    |   F.delta'  |    enthalpy     | <-- min LBFGS
 +------------+-------------+-------------+-----------------+ <-- min LBFGS
 |  previous  |    0.000000 |    0.254770 |    -6167.772198 | <-- min LBFGS
 | trial step |    1.000000 |    0.246335 |    -6167.779205 | <-- min LBFGS
 +------------+-------------+-------------+-----------------+ <-- min LBFGS
  

--------------------------------------------------------------------------------
 LBFGS: improving iteration         1 with line minimization (lambda= 30.202721)
--------------------------------------------------------------------------------
 
+---------------- MEMORY AND SCRATCH DISK ESTIMATES PER PROCESS --------------+
|                                                     Memory          Disk    |
| Model and support data                              102.9 MB         0.0 MB |
| Electronic energy minimisation requirements          10.7 MB         0.0 MB |
| Geometry minimisation requirements                   12.1 MB         0.0 MB |
|                                               ----------------------------- |
| Approx. total storage required per process          125.7 MB         0.0 MB |
|                                                                             |
| Requirements will fluctuate during execution and may exceed these estimates |
+-----------------------------------------------------------------------------+
 
 
                           -------------------------------
                                      Unit Cell
                           -------------------------------
        Real Lattice(A)              Reciprocal Lattice(1/A)
   5.7240397   0.0000000   0.0000000        1.0976837   0.0000000   0.0000000
   0.0000000   5.7240397   0.0000000        0.0000000   1.0976837   0.0000000
   0.0000000   0.0000000  12.4931803        0.0000000   0.0000000   0.5029292
 
                       Lattice parameters(A)       Cell Angles
                    a =    5.724040          alpha =   90.000000
                    b =    5.724040          beta  =   90.000000
                    c =   12.493180          gamma =   90.000000
 
                Current cell volume =  409.334428 A**3
 
                           -------------------------------
                                     Cell Contents
                           -------------------------------
 
            xxxxxxxxxxxxxxxxxxxxxxxxxxxxxxxxxxxxxxxxxxxxxxxxxxxxxxxxxxxxxxxxx
            x  Element         Atom        Fractional coordinates of atoms  x
            x                 Number           u          v          w      x
            x---------------------------------------------------------------x
            x  Li                1         0.263433   0.763433   0.458067   x
            x  Li                2         0.736567   0.236567   0.458067   x
            x  Li                3         0.236567   0.263433   0.458067   x
            x  Li                4         0.763433   0.736567   0.458067   x
            x  Li                5         0.763433   0.263433   0.958067   x
            x  Li                6         0.236567   0.736567   0.958067   x
            x  Li                7         0.736567   0.763433   0.958067   x
            x  Li                8         0.263433   0.236567   0.958067   x
            x  Li                9         0.206868   0.706868   0.229971   x
            x  Li               10         0.793132   0.293132   0.229971   x
            x  Li               11         0.293132   0.206868   0.229971   x
            x  Li               12         0.706868   0.793132   0.229971   x
            x  Li               13         0.706868   0.206868   0.729971   x
            x  Li               14         0.293132   0.793132   0.729971   x
            x  Li               15         0.793132   0.706868   0.729971   x
            x  Li               16         0.206868   0.293132   0.729971   x
            x  Li               17         0.000000   0.000000   0.092563   x
            x  Li               18         0.000000   0.000000   0.592563   x
            x  Li               19         0.500000   0.500000   0.592563   x
            x  Li               20         0.500000   0.500000   0.092563   x
            x  P                 1         0.500000   0.000000   0.084257   x
            x  P                 2        -0.000000   0.500000   0.084257   x
            x  P                 3         0.000000   0.500000   0.584257   x
            x  P                 4         0.500000  -0.000000   0.584257   x
            x  S                 1         0.000000   0.000000   0.336896   x
            x  S                 2         0.000000  -0.000000   0.836896   x
            x  S                 3         0.500000   0.500000   0.836896   x
            x  S                 4         0.500000   0.500000   0.336896   x
            xxxxxxxxxxxxxxxxxxxxxxxxxxxxxxxxxxxxxxxxxxxxxxxxxxxxxxxxxxxxxxxxx
 
 
------------------------------------------------------------------------ <-- SCF
SCF loop      Energy           Fermi           Energy gain       Timer   <-- SCF
                               energy          per atom          (sec)   <-- SCF
------------------------------------------------------------------------ <-- SCF
Initial  -6.14975192E+003  0.00000000E+000                       246.60  <-- SCF
      1  -6.16887767E+003  3.26386771E+000   6.83062474E-001     253.79  <-- SCF
      2  -6.16942808E+003  3.26334821E+000   1.96574736E-002     263.09  <-- SCF
      3  -6.16774602E+003  3.46113151E+000  -6.00733343E-002     271.84  <-- SCF
      4  -6.16757542E+003  3.58218272E+000  -6.09293313E-003     281.45  <-- SCF
      5  -6.16755928E+003  3.61552720E+000  -5.76462915E-004     290.67  <-- SCF
      6  -6.16755518E+003  3.64048719E+000  -1.46495855E-004     299.43  <-- SCF
      7  -6.16755478E+003  3.65322106E+000  -1.42433411E-005     307.53  <-- SCF
      8  -6.16755480E+003  3.65255865E+000   6.84006795E-007     313.66  <-- SCF
      9  -6.16755480E+003  3.65289605E+000   2.11656830E-007     319.49  <-- SCF
------------------------------------------------------------------------ <-- SCF
 
Final energy, E             =  -6167.554804947     eV
Final free energy (E-TS)    =  -6167.554804947     eV
(energies not corrected for finite basis set)
 
NB est. 0K energy (E-0.5TS)      =  -6167.554804947     eV
 
 
 ************************** Constrained Symmetrised Forces **************************
 *                                                                                  *
 *                           Cartesian components (eV/A)                            *
 * -------------------------------------------------------------------------------- *
 *                         x                    y                    z              *
 *                                                                                  *
 * Li              1     -0.06810             -0.06810             -0.11422         *
 * Li              2      0.06810              0.06810             -0.11422         *
 * Li              3      0.06810             -0.06810             -0.11422         *
 * Li              4     -0.06810              0.06810             -0.11422         *
 * Li              5     -0.06810             -0.06810             -0.11422         *
 * Li              6      0.06810              0.06810             -0.11422         *
 * Li              7      0.06810             -0.06810             -0.11422         *
 * Li              8     -0.06810              0.06810             -0.11422         *
 * Li              9      0.08490              0.08490             -0.01090         *
 * Li             10     -0.08490             -0.08490             -0.01090         *
 * Li             11     -0.08490              0.08490             -0.01090         *
 * Li             12      0.08490             -0.08490             -0.01090         *
 * Li             13      0.08490              0.08490             -0.01090         *
 * Li             14     -0.08490             -0.08490             -0.01090         *
 * Li             15     -0.08490              0.08490             -0.01090         *
 * Li             16      0.08490             -0.08490             -0.01090         *
 * Li             17      0.00000             -0.00000              0.03154         *
 * Li             18      0.00000             -0.00000              0.03154         *
 * Li             19      0.00000             -0.00000              0.03154         *
 * Li             20      0.00000             -0.00000              0.03154         *
 * P               1      0.00000             -0.00000              0.13393         *
 * P               2      0.00000             -0.00000              0.13393         *
 * P               3      0.00000             -0.00000              0.13393         *
 * P               4      0.00000             -0.00000              0.13393         *
 * S               1      0.00000             -0.00000              0.08477         *
 * S               2      0.00000             -0.00000              0.08477         *
 * S               3      0.00000             -0.00000              0.08477         *
 * S               4      0.00000             -0.00000              0.08477         *
 *                                                                                  *
 ************************************************************************************
 
 *********** Symmetrised Stress Tensor ***********
 *                                               *
 *          Cartesian components (GPa)           *
 * --------------------------------------------- *
 *             x             y             z     *
 *                                               *
 *  x     -0.113133      0.000000      0.000000  *
 *  y      0.000000     -0.113133      0.000000  *
 *  z      0.000000      0.000000      1.151455  *
 *                                               *
 *  Pressure:   -0.3084                          *
 *                                               *
 *************************************************
  
 +------------+-------------+-------------+-----------------+ <-- min LBFGS
 |    Step    |   lambda    |   F.delta'  |    enthalpy     | <-- min LBFGS
 +------------+-------------+-------------+-----------------+ <-- min LBFGS
 |  previous  |    0.000000 |    0.254770 |    -6167.772198 | <-- min LBFGS
 | trial step |    1.000000 |    0.246335 |    -6167.779205 | <-- min LBFGS
 |  line step |   30.202721 |   -0.074553 |    -6167.554805 | <-- min LBFGS
 +------------+-------------+-------------+-----------------+ <-- min LBFGS
  
 LBFGS: finished iteration     1 with enthalpy= -6.16755480E+003 eV
  
 +-----------+-----------------+-----------------+------------+-----+ <-- LBFGS
 | Parameter |      value      |    tolerance    |    units   | OK? | <-- LBFGS
 +-----------+-----------------+-----------------+------------+-----+ <-- LBFGS
 |  dE/ion   |   7.764020E-003 |   2.000000E-005 |         eV | No  | <-- LBFGS
 |  |F|max   |   1.494098E-001 |   5.000000E-002 |       eV/A | No  | <-- LBFGS
 |  |dR|max  |   4.470118E-002 |   1.000000E-003 |          A | No  | <-- LBFGS
 |   Smax    |   1.151455E+000 |   1.000000E-001 |        GPa | No  | <-- LBFGS
 +-----------+-----------------+-----------------+------------+-----+ <-- LBFGS
  

================================================================================
 Starting LBFGS iteration          2 ...
================================================================================
  
 +------------+-------------+-------------+-----------------+ <-- min LBFGS
 |    Step    |   lambda    |   F.delta'  |    enthalpy     | <-- min LBFGS
 +------------+-------------+-------------+-----------------+ <-- min LBFGS
 |  previous  |    0.000000 |    0.091517 |    -6167.554805 | <-- min LBFGS
 +------------+-------------+-------------+-----------------+ <-- min LBFGS
  

--------------------------------------------------------------------------------
 LBFGS: starting iteration         2 with trial guess (lambda=  1.000000)
--------------------------------------------------------------------------------
 
+---------------- MEMORY AND SCRATCH DISK ESTIMATES PER PROCESS --------------+
|                                                     Memory          Disk    |
| Model and support data                              103.7 MB         0.0 MB |
| Electronic energy minimisation requirements          10.7 MB         0.0 MB |
| Geometry minimisation requirements                   12.2 MB         0.0 MB |
|                                               ----------------------------- |
| Approx. total storage required per process          126.7 MB         0.0 MB |
|                                                                             |
| Requirements will fluctuate during execution and may exceed these estimates |
+-----------------------------------------------------------------------------+
 
 
                           -------------------------------
                                      Unit Cell
                           -------------------------------
        Real Lattice(A)              Reciprocal Lattice(1/A)
   5.7446848   0.0000000   0.0000000        1.0937389   0.0000000   0.0000000
   0.0000000   5.7446848   0.0000000        0.0000000   1.0937389   0.0000000
   0.0000000   0.0000000  12.4454917        0.0000000   0.0000000   0.5048563
 
                       Lattice parameters(A)       Cell Angles
                    a =    5.744685          alpha =   90.000000
                    b =    5.744685          beta  =   90.000000
                    c =   12.445492          gamma =   90.000000
 
                Current cell volume =  410.718696 A**3
 
                           -------------------------------
                                     Cell Contents
                           -------------------------------
 
            xxxxxxxxxxxxxxxxxxxxxxxxxxxxxxxxxxxxxxxxxxxxxxxxxxxxxxxxxxxxxxxxx
            x  Element         Atom        Fractional coordinates of atoms  x
            x                 Number           u          v          w      x
            x---------------------------------------------------------------x
            x  Li                1         0.263734   0.763734   0.457311   x
            x  Li                2         0.736266   0.236266   0.457311   x
            x  Li                3         0.236266   0.263734   0.457311   x
            x  Li                4         0.763734   0.736266   0.457311   x
            x  Li                5         0.763734   0.263734   0.957311   x
            x  Li                6         0.236266   0.736266   0.957311   x
            x  Li                7         0.736266   0.763734   0.957311   x
            x  Li                8         0.263734   0.236266   0.957311   x
            x  Li                9         0.206365   0.706365   0.230407   x
            x  Li               10         0.793635   0.293635   0.230407   x
            x  Li               11         0.293635   0.206365   0.230407   x
            x  Li               12         0.706365   0.793635   0.230407   x
            x  Li               13         0.706365   0.206365   0.730407   x
            x  Li               14         0.293635   0.793635   0.730407   x
            x  Li               15         0.793635   0.706365   0.730407   x
            x  Li               16         0.206365   0.293635   0.730407   x
            x  Li               17         0.000000   0.000000   0.092882   x
            x  Li               18        -0.000000   0.000000   0.592882   x
            x  Li               19         0.500000   0.500000   0.592882   x
            x  Li               20         0.500000   0.500000   0.092882   x
            x  P                 1         0.500000  -0.000000   0.084455   x
            x  P                 2        -0.000000   0.500000   0.084455   x
            x  P                 3        -0.000000   0.500000   0.584455   x
            x  P                 4         0.500000  -0.000000   0.584455   x
            x  S                 1         0.000000  -0.000000   0.337018   x
            x  S                 2         0.000000  -0.000000   0.837018   x
            x  S                 3         0.500000   0.500000   0.837018   x
            x  S                 4         0.500000   0.500000   0.337018   x
            xxxxxxxxxxxxxxxxxxxxxxxxxxxxxxxxxxxxxxxxxxxxxxxxxxxxxxxxxxxxxxxxx
 
 
------------------------------------------------------------------------ <-- SCF
SCF loop      Energy           Fermi           Energy gain       Timer   <-- SCF
                               energy          per atom          (sec)   <-- SCF
------------------------------------------------------------------------ <-- SCF
Initial  -6.16670353E+003  0.00000000E+000                       343.73  <-- SCF
      1  -6.16763915E+003  3.72800650E+000   3.34147906E-002     350.93  <-- SCF
      2  -6.16766633E+003  3.72798514E+000   9.70730404E-004     360.31  <-- SCF
      3  -6.16758189E+003  3.69051902E+000  -3.01572156E-003     368.79  <-- SCF
      4  -6.16757357E+003  3.66645886E+000  -2.97002164E-004     378.26  <-- SCF
      5  -6.16757282E+003  3.65898752E+000  -2.69129834E-005     386.27  <-- SCF
      6  -6.16757261E+003  3.65320104E+000  -7.37205284E-006     393.45  <-- SCF
      7  -6.16757260E+003  3.65084889E+000  -2.24121263E-007     399.37  <-- SCF
------------------------------------------------------------------------ <-- SCF
 
Final energy, E             =  -6167.572604145     eV
Final free energy (E-TS)    =  -6167.572604145     eV
(energies not corrected for finite basis set)
 
NB est. 0K energy (E-0.5TS)      =  -6167.572604145     eV
 
 
 ************************** Constrained Symmetrised Forces **************************
 *                                                                                  *
 *                           Cartesian components (eV/A)                            *
 * -------------------------------------------------------------------------------- *
 *                         x                    y                    z              *
 *                                                                                  *
 * Li              1     -0.06651             -0.06651             -0.11146         *
 * Li              2      0.06651              0.06651             -0.11146         *
 * Li              3      0.06651             -0.06651             -0.11146         *
 * Li              4     -0.06651              0.06651             -0.11146         *
 * Li              5     -0.06651             -0.06651             -0.11146         *
 * Li              6      0.06651              0.06651             -0.11146         *
 * Li              7      0.06651             -0.06651             -0.11146         *
 * Li              8     -0.06651              0.06651             -0.11146         *
 * Li              9      0.08267              0.08267             -0.01014         *
 * Li             10     -0.08267             -0.08267             -0.01014         *
 * Li             11     -0.08267              0.08267             -0.01014         *
 * Li             12      0.08267             -0.08267             -0.01014         *
 * Li             13      0.08267              0.08267             -0.01014         *
 * Li             14     -0.08267             -0.08267             -0.01014         *
 * Li             15     -0.08267              0.08267             -0.01014         *
 * Li             16      0.08267             -0.08267             -0.01014         *
 * Li             17      0.00000             -0.00000              0.04746         *
 * Li             18      0.00000             -0.00000              0.04746         *
 * Li             19      0.00000             -0.00000              0.04746         *
 * Li             20      0.00000             -0.00000              0.04746         *
 * P               1      0.00000             -0.00000              0.11374         *
 * P               2      0.00000             -0.00000              0.11374         *
 * P               3      0.00000             -0.00000              0.11374         *
 * P               4      0.00000             -0.00000              0.11374         *
 * S               1      0.00000             -0.00000              0.08200         *
 * S               2      0.00000             -0.00000              0.08200         *
 * S               3      0.00000             -0.00000              0.08200         *
 * S               4      0.00000             -0.00000              0.08200         *
 *                                                                                  *
 ************************************************************************************
 
 *********** Symmetrised Stress Tensor ***********
 *                                               *
 *          Cartesian components (GPa)           *
 * --------------------------------------------- *
 *             x             y             z     *
 *                                               *
 *  x      0.139129      0.000000      0.000000  *
 *  y      0.000000      0.139129      0.000000  *
 *  z      0.000000      0.000000      1.160728  *
 *                                               *
 *  Pressure:   -0.4797                          *
 *                                               *
 *************************************************
  
 +------------+-------------+-------------+-----------------+ <-- min LBFGS
 |    Step    |   lambda    |   F.delta'  |    enthalpy     | <-- min LBFGS
 +------------+-------------+-------------+-----------------+ <-- min LBFGS
 |  previous  |    0.000000 |    0.091517 |    -6167.554805 | <-- min LBFGS
 | trial step |    1.000000 |    0.068528 |    -6167.572604 | <-- min LBFGS
 +------------+-------------+-------------+-----------------+ <-- min LBFGS
  

--------------------------------------------------------------------------------
 LBFGS: improving iteration         2 with line minimization (lambda=  3.980903)
--------------------------------------------------------------------------------
 
                           -------------------------------
                                      Unit Cell
                           -------------------------------
        Real Lattice(A)              Reciprocal Lattice(1/A)
   5.8062261   0.0000000   0.0000000        1.0821462   0.0000000   0.0000000
   0.0000000   5.8062261   0.0000000        0.0000000   1.0821462   0.0000000
   0.0000000   0.0000000  12.3033366        0.0000000   0.0000000   0.5106895
 
                       Lattice parameters(A)       Cell Angles
                    a =    5.806226          alpha =   90.000000
                    b =    5.806226          beta  =   90.000000
                    c =   12.303337          gamma =   90.000000
 
                Current cell volume =  414.773302 A**3
 
                           -------------------------------
                                     Cell Contents
                           -------------------------------
 
            xxxxxxxxxxxxxxxxxxxxxxxxxxxxxxxxxxxxxxxxxxxxxxxxxxxxxxxxxxxxxxxxx
            x  Element         Atom        Fractional coordinates of atoms  x
            x                 Number           u          v          w      x
            x---------------------------------------------------------------x
            x  Li                1         0.264631   0.764631   0.455056   x
            x  Li                2         0.735369   0.235369   0.455056   x
            x  Li                3         0.235369   0.264631   0.455056   x
            x  Li                4         0.764631   0.735369   0.455056   x
            x  Li                5         0.764631   0.264631   0.955056   x
            x  Li                6         0.235369   0.735369   0.955056   x
            x  Li                7         0.735369   0.764631   0.955056   x
            x  Li                8         0.264631   0.235369   0.955056   x
            x  Li                9         0.204864   0.704864   0.231708   x
            x  Li               10         0.795136   0.295136   0.231708   x
            x  Li               11         0.295136   0.204864   0.231708   x
            x  Li               12         0.704864   0.795136   0.231708   x
            x  Li               13         0.704864   0.204864   0.731708   x
            x  Li               14         0.295136   0.795136   0.731708   x
            x  Li               15         0.795136   0.704864   0.731708   x
            x  Li               16         0.204864   0.295136   0.731708   x
            x  Li               17         0.000000   0.000000   0.093833   x
            x  Li               18        -0.000000   0.000000   0.593833   x
            x  Li               19         0.500000   0.500000   0.593833   x
            x  Li               20         0.500000   0.500000   0.093833   x
            x  P                 1         0.500000  -0.000000   0.085046   x
            x  P                 2        -0.000000   0.500000   0.085046   x
            x  P                 3        -0.000000   0.500000   0.585046   x
            x  P                 4         0.500000  -0.000000   0.585046   x
            x  S                 1         0.000000  -0.000000   0.337382   x
            x  S                 2         0.000000  -0.000000   0.837382   x
            x  S                 3         0.500000   0.500000   0.837382   x
            x  S                 4         0.500000   0.500000   0.337382   x
            xxxxxxxxxxxxxxxxxxxxxxxxxxxxxxxxxxxxxxxxxxxxxxxxxxxxxxxxxxxxxxxxx
 
 
------------------------------------------------------------------------ <-- SCF
SCF loop      Energy           Fermi           Energy gain       Timer   <-- SCF
                               energy          per atom          (sec)   <-- SCF
------------------------------------------------------------------------ <-- SCF
Initial  -6.16013182E+003  0.00000000E+000                       423.53  <-- SCF
      1  -6.16838055E+003  3.68260933E+000   2.94597754E-001     430.88  <-- SCF
      2  -6.16862865E+003  3.68242691E+000   8.86052376E-003     440.09  <-- SCF
      3  -6.16787481E+003  3.65406397E+000  -2.69227018E-002     448.68  <-- SCF
      4  -6.16780711E+003  3.65088608E+000  -2.41784332E-003     458.32  <-- SCF
      5  -6.16780095E+003  3.64517744E+000  -2.19905276E-004     467.27  <-- SCF
      6  -6.16779935E+003  3.63971016E+000  -5.74927383E-005     475.56  <-- SCF
      7  -6.16779925E+003  3.63584225E+000  -3.22550034E-006     483.08  <-- SCF
      8  -6.16779926E+003  3.63598282E+000   3.10503637E-007     488.86  <-- SCF
------------------------------------------------------------------------ <-- SCF
 
Final energy, E             =  -6167.799263440     eV
Final free energy (E-TS)    =  -6167.799263440     eV
(energies not corrected for finite basis set)
 
NB est. 0K energy (E-0.5TS)      =  -6167.799263440     eV
 
 
 ************************** Constrained Symmetrised Forces **************************
 *                                                                                  *
 *                           Cartesian components (eV/A)                            *
 * -------------------------------------------------------------------------------- *
 *                         x                    y                    z              *
 *                                                                                  *
 * Li              1     -0.04798             -0.04798              0.12967         *
 * Li              2      0.04798              0.04798              0.12967         *
 * Li              3      0.04798             -0.04798              0.12967         *
 * Li              4     -0.04798              0.04798              0.12967         *
 * Li              5     -0.04798             -0.04798              0.12967         *
 * Li              6      0.04798              0.04798              0.12967         *
 * Li              7      0.04798             -0.04798              0.12967         *
 * Li              8     -0.04798              0.04798              0.12967         *
 * Li              9      0.07638              0.07638             -0.06771         *
 * Li             10     -0.07638             -0.07638             -0.06771         *
 * Li             11     -0.07638              0.07638             -0.06771         *
 * Li             12      0.07638             -0.07638             -0.06771         *
 * Li             13      0.07638              0.07638             -0.06771         *
 * Li             14     -0.07638             -0.07638             -0.06771         *
 * Li             15     -0.07638              0.07638             -0.06771         *
 * Li             16      0.07638             -0.07638             -0.06771         *
 * Li             17     -0.00000             -0.00000             -0.09526         *
 * Li             18      0.00000             -0.00000             -0.09526         *
 * Li             19     -0.00000             -0.00000             -0.09526         *
 * Li             20      0.00000             -0.00000             -0.09526         *
 * P               1     -0.00000             -0.00000             -0.02321         *
 * P               2     -0.00000             -0.00000             -0.02321         *
 * P               3     -0.00000             -0.00000             -0.02321         *
 * P               4      0.00000             -0.00000             -0.02321         *
 * S               1      0.00000             -0.00000             -0.00547         *
 * S               2     -0.00000             -0.00000             -0.00547         *
 * S               3      0.00000             -0.00000             -0.00547         *
 * S               4      0.00000             -0.00000             -0.00547         *
 *                                                                                  *
 ************************************************************************************
 
 *********** Symmetrised Stress Tensor ***********
 *                                               *
 *          Cartesian components (GPa)           *
 * --------------------------------------------- *
 *             x             y             z     *
 *                                               *
 *  x      0.668505      0.000000     -0.000000  *
 *  y      0.000000      0.668505      0.000000  *
 *  z     -0.000000      0.000000     -0.839898  *
 *                                               *
 *  Pressure:   -0.1657                          *
 *                                               *
 *************************************************
  
 +------------+-------------+-------------+-----------------+ <-- min LBFGS
 |    Step    |   lambda    |   F.delta'  |    enthalpy     | <-- min LBFGS
 +------------+-------------+-------------+-----------------+ <-- min LBFGS
 |  previous  |    0.000000 |    0.091517 |    -6167.554805 | <-- min LBFGS
 | trial step |    1.000000 |    0.068528 |    -6167.572604 | <-- min LBFGS
 |  line step |    3.980903 |   -0.202859 |    -6167.799263 | <-- min LBFGS
 +------------+-------------+-------------+-----------------+ <-- min LBFGS
  

--------------------------------------------------------------------------------
 LBFGS: improving iteration         2 with quad minimization (lambda=  1.752707)
--------------------------------------------------------------------------------
 
                           -------------------------------
                                      Unit Cell
                           -------------------------------
        Real Lattice(A)              Reciprocal Lattice(1/A)
   5.7602246   0.0000000   0.0000000        1.0907882   0.0000000   0.0000000
   0.0000000   5.7602246   0.0000000        0.0000000   1.0907882   0.0000000
   0.0000000   0.0000000  12.4095961        0.0000000   0.0000000   0.5063167
 
                       Lattice parameters(A)       Cell Angles
                    a =    5.760225          alpha =   90.000000
                    b =    5.760225          beta  =   90.000000
                    c =   12.409596          gamma =   90.000000
 
                Current cell volume =  411.752726 A**3
 
                           -------------------------------
                                     Cell Contents
                           -------------------------------
 
            xxxxxxxxxxxxxxxxxxxxxxxxxxxxxxxxxxxxxxxxxxxxxxxxxxxxxxxxxxxxxxxxx
            x  Element         Atom        Fractional coordinates of atoms  x
            x                 Number           u          v          w      x
            x---------------------------------------------------------------x
            x  Li                1         0.263960   0.763960   0.456742   x
            x  Li                2         0.736040   0.236040   0.456742   x
            x  Li                3         0.236040   0.263960   0.456742   x
            x  Li                4         0.763960   0.736040   0.456742   x
            x  Li                5         0.763960   0.263960   0.956742   x
            x  Li                6         0.236040   0.736040   0.956742   x
            x  Li                7         0.736040   0.763960   0.956742   x
            x  Li                8         0.263960   0.236040   0.956742   x
            x  Li                9         0.205986   0.705986   0.230736   x
            x  Li               10         0.794014   0.294014   0.230736   x
            x  Li               11         0.294014   0.205986   0.230736   x
            x  Li               12         0.705986   0.794014   0.230736   x
            x  Li               13         0.705986   0.205986   0.730736   x
            x  Li               14         0.294014   0.794014   0.730736   x
            x  Li               15         0.794014   0.705986   0.730736   x
            x  Li               16         0.205986   0.294014   0.730736   x
            x  Li               17         0.000000   0.000000   0.093122   x
            x  Li               18        -0.000000   0.000000   0.593122   x
            x  Li               19         0.500000   0.500000   0.593122   x
            x  Li               20         0.500000   0.500000   0.093122   x
            x  P                 1         0.500000  -0.000000   0.084604   x
            x  P                 2        -0.000000   0.500000   0.084604   x
            x  P                 3        -0.000000   0.500000   0.584604   x
            x  P                 4         0.500000  -0.000000   0.584604   x
            x  S                 1         0.000000  -0.000000   0.337110   x
            x  S                 2         0.000000  -0.000000   0.837110   x
            x  S                 3         0.500000   0.500000   0.837110   x
            x  S                 4         0.500000   0.500000   0.337110   x
            xxxxxxxxxxxxxxxxxxxxxxxxxxxxxxxxxxxxxxxxxxxxxxxxxxxxxxxxxxxxxxxxx
 
 
------------------------------------------------------------------------ <-- SCF
SCF loop      Energy           Fermi           Energy gain       Timer   <-- SCF
                               energy          per atom          (sec)   <-- SCF
------------------------------------------------------------------------ <-- SCF
Initial  -6.16335818E+003  0.00000000E+000                       511.26  <-- SCF
      1  -6.16792595E+003  3.45663164E+000   1.63134494E-001     518.61  <-- SCF
      2  -6.16803310E+003  3.45653826E+000   3.82693956E-003     527.83  <-- SCF
      3  -6.16762629E+003  3.55868048E+000  -1.45289013E-002     536.48  <-- SCF
      4  -6.16758574E+003  3.61529404E+000  -1.44836614E-003     546.08  <-- SCF
      5  -6.16758197E+003  3.63175892E+000  -1.34518848E-004     554.64  <-- SCF
      6  -6.16758100E+003  3.64417550E+000  -3.49220000E-005     562.93  <-- SCF
      7  -6.16758093E+003  3.64929029E+000  -2.15925200E-006     570.20  <-- SCF
      8  -6.16758094E+003  3.64925194E+000   2.88142217E-007     575.71  <-- SCF
------------------------------------------------------------------------ <-- SCF
 
Final energy, E             =  -6167.580943057     eV
Final free energy (E-TS)    =  -6167.580943057     eV
(energies not corrected for finite basis set)
 
NB est. 0K energy (E-0.5TS)      =  -6167.580943057     eV
 
 
 ************************** Constrained Symmetrised Forces **************************
 *                                                                                  *
 *                           Cartesian components (eV/A)                            *
 * -------------------------------------------------------------------------------- *
 *                         x                    y                    z              *
 *                                                                                  *
 * Li              1     -0.06582             -0.06582             -0.06978         *
 * Li              2      0.06582              0.06582             -0.06978         *
 * Li              3      0.06582             -0.06582             -0.06978         *
 * Li              4     -0.06582              0.06582             -0.06978         *
 * Li              5     -0.06582             -0.06582             -0.06978         *
 * Li              6      0.06582              0.06582             -0.06978         *
 * Li              7      0.06582             -0.06582             -0.06978         *
 * Li              8     -0.06582              0.06582             -0.06978         *
 * Li              9      0.08346              0.08346             -0.04086         *
 * Li             10     -0.08346             -0.08346             -0.04086         *
 * Li             11     -0.08346              0.08346             -0.04086         *
 * Li             12      0.08346             -0.08346             -0.04086         *
 * Li             13      0.08346              0.08346             -0.04086         *
 * Li             14     -0.08346             -0.08346             -0.04086         *
 * Li             15     -0.08346              0.08346             -0.04086         *
 * Li             16      0.08346             -0.08346             -0.04086         *
 * Li             17     -0.00000              0.00000              0.05048         *
 * Li             18     -0.00000              0.00000              0.05048         *
 * Li             19     -0.00000              0.00000              0.05048         *
 * Li             20     -0.00000              0.00000              0.05048         *
 * P               1     -0.00000              0.00000              0.09534         *
 * P               2     -0.00000              0.00000              0.09534         *
 * P               3     -0.00000              0.00000              0.09534         *
 * P               4     -0.00000              0.00000              0.09534         *
 * S               1     -0.00000              0.00000              0.07548         *
 * S               2     -0.00000              0.00000              0.07548         *
 * S               3     -0.00000              0.00000              0.07548         *
 * S               4     -0.00000              0.00000              0.07548         *
 *                                                                                  *
 ************************************************************************************
 
 *********** Symmetrised Stress Tensor ***********
 *                                               *
 *          Cartesian components (GPa)           *
 * --------------------------------------------- *
 *             x             y             z     *
 *                                               *
 *  x      0.313233      0.000000     -0.000000  *
 *  y      0.000000      0.313233      0.000000  *
 *  z     -0.000000      0.000000      1.132505  *
 *                                               *
 *  Pressure:   -0.5863                          *
 *                                               *
 *************************************************
  
 +------------+-------------+-------------+-----------------+ <-- min LBFGS
 |    Step    |   lambda    |   F.delta'  |    enthalpy     | <-- min LBFGS
 +------------+-------------+-------------+-----------------+ <-- min LBFGS
 |  previous  |    0.000000 |    0.091517 |    -6167.554805 | <-- min LBFGS
 | trial step |    1.000000 |    0.068528 |    -6167.572604 | <-- min LBFGS
 |  line step |    3.980903 |   -0.202859 |    -6167.799263 | <-- min LBFGS
 |  quad step |    1.752707 |    0.027315 |    -6167.580943 | <-- min LBFGS
 +------------+-------------+-------------+-----------------+ <-- min LBFGS
  
 LBFGS: finished iteration     2 with enthalpy= -6.16758094E+003 eV
  
 +-----------+-----------------+-----------------+------------+-----+ <-- LBFGS
 | Parameter |      value      |    tolerance    |    units   | OK? | <-- LBFGS
 +-----------+-----------------+-----------------+------------+-----+ <-- LBFGS
 |  dE/ion   |   9.335039E-004 |   2.000000E-005 |         eV | No  | <-- LBFGS
 |  |F|max   |   1.249085E-001 |   5.000000E-002 |       eV/A | No  | <-- LBFGS
 |  |dR|max  |   1.700087E-002 |   1.000000E-003 |          A | No  | <-- LBFGS
 |   Smax    |   1.132505E+000 |   1.000000E-001 |        GPa | No  | <-- LBFGS
 +-----------+-----------------+-----------------+------------+-----+ <-- LBFGS
  
 LBFGS: WARNING - Geometry optimization failed to converge after          2 steps

================================================================================
 LBFGS: Final Configuration:
================================================================================
 
                           -------------------------------
                                      Unit Cell
                           -------------------------------
        Real Lattice(A)              Reciprocal Lattice(1/A)
   5.7602246   0.0000000   0.0000000        1.0907882   0.0000000   0.0000000
   0.0000000   5.7602246   0.0000000        0.0000000   1.0907882   0.0000000
   0.0000000   0.0000000  12.4095961        0.0000000   0.0000000   0.5063167
 
                       Lattice parameters(A)       Cell Angles
                    a =    5.760225          alpha =   90.000000
                    b =    5.760225          beta  =   90.000000
                    c =   12.409596          gamma =   90.000000
 
                Current cell volume =  411.752726 A**3
 
                           -------------------------------
                                     Cell Contents
                           -------------------------------
 
            xxxxxxxxxxxxxxxxxxxxxxxxxxxxxxxxxxxxxxxxxxxxxxxxxxxxxxxxxxxxxxxxx
            x  Element         Atom        Fractional coordinates of atoms  x
            x                 Number           u          v          w      x
            x---------------------------------------------------------------x
            x  Li                1         0.263960   0.763960   0.456742   x
            x  Li                2         0.736040   0.236040   0.456742   x
            x  Li                3         0.236040   0.263960   0.456742   x
            x  Li                4         0.763960   0.736040   0.456742   x
            x  Li                5         0.763960   0.263960   0.956742   x
            x  Li                6         0.236040   0.736040   0.956742   x
            x  Li                7         0.736040   0.763960   0.956742   x
            x  Li                8         0.263960   0.236040   0.956742   x
            x  Li                9         0.205986   0.705986   0.230736   x
            x  Li               10         0.794014   0.294014   0.230736   x
            x  Li               11         0.294014   0.205986   0.230736   x
            x  Li               12         0.705986   0.794014   0.230736   x
            x  Li               13         0.705986   0.205986   0.730736   x
            x  Li               14         0.294014   0.794014   0.730736   x
            x  Li               15         0.794014   0.705986   0.730736   x
            x  Li               16         0.205986   0.294014   0.730736   x
            x  Li               17        -0.000000  -0.000000   0.093122   x
            x  Li               18        -0.000000  -0.000000   0.593122   x
            x  Li               19         0.500000   0.500000   0.593122   x
            x  Li               20         0.500000   0.500000   0.093122   x
            x  P                 1         0.500000  -0.000000   0.084604   x
            x  P                 2        -0.000000   0.500000   0.084604   x
            x  P                 3        -0.000000   0.500000   0.584604   x
            x  P                 4         0.500000  -0.000000   0.584604   x
            x  S                 1        -0.000000  -0.000000   0.337110   x
            x  S                 2        -0.000000  -0.000000   0.837110   x
            x  S                 3         0.500000   0.500000   0.837110   x
            x  S                 4         0.500000   0.500000   0.337110   x
            xxxxxxxxxxxxxxxxxxxxxxxxxxxxxxxxxxxxxxxxxxxxxxxxxxxxxxxxxxxxxxxxx
 
 
 LBFGS: Final Enthalpy     = -6.16758094E+003 eV
 LBFGS: Final <frequency>  =    1686.41952 cm-1
 LBFGS: Final bulk modulus =     184.76939 GPa
  
  **********************************************************
  *** There were at least     2 warnings during this run ***
  *** => please check the whole of this file carefully!  ***
  **********************************************************
 
 ******************* Unconstrained Forces *******************
 *                                                          *
 *               Cartesian components (eV/A)                *
 * -------------------------------------------------------- *
[...]
            x  Li                5         0.749541   0.249541   0.957406   x
            x  Li                6         0.250459   0.750459   0.957406   x
            x  Li                7         0.750459   0.749541   0.957406   x
            x  Li                8         0.249541   0.250459   0.957406   x
            x  Li                9         0.246238   0.746238   0.224140   x
            x  Li               10         0.753762   0.253762   0.224140   x
            x  Li               11         0.253762   0.246238   0.224140   x
            x  Li               12         0.746238   0.753762   0.224140   x
            x  Li               13         0.746238   0.246238   0.724140   x
            x  Li               14         0.253762   0.753762   0.724140   x
            x  Li               15         0.753762   0.746238   0.724140   x
            x  Li               16         0.246238   0.253762   0.724140   x
            x  Li               17         0.000000   0.000000   0.089703   x
            x  Li               18         0.000000   0.000000   0.589703   x
            x  Li               19         0.500000   0.500000   0.589703   x
            x  Li               20         0.500000   0.500000   0.089703   x
            x  P                 1         0.500000   0.000000   0.093033   x
            x  P                 2         0.000000   0.500000   0.093033   x
            x  P                 3         0.000000   0.500000   0.593033   x
            x  P                 4         0.500000   0.000000   0.593033   x
            x  S                 1         0.000000   0.000000   0.343962   x
            x  S                 2         0.000000   0.000000   0.843962   x
            x  S                 3         0.500000   0.500000   0.843962   x
            x  S                 4         0.500000   0.500000   0.343962   x
            xxxxxxxxxxxxxxxxxxxxxxxxxxxxxxxxxxxxxxxxxxxxxxxxxxxxxxxxxxxxxxxxx
 
 
 LBFGS: Final Enthalpy     = -6.16805339E+003 eV
 LBFGS: Final <frequency>  unchanged from initial value
 LBFGS: Final bulk modulus unchanged from initial value
  
  **********************************************************
  *** There were at least     1 warnings during this run ***
  *** => please check the whole of this file carefully!  ***
  **********************************************************
 
 ******************* Unconstrained Forces *******************
 *                                                          *
 *               Cartesian components (eV/A)                *
 * -------------------------------------------------------- *
 *                         x            y            z      *
 *                                                          *
 * Li              1      0.00629      0.00629      0.02480 *
 * Li              2     -0.00629     -0.00629      0.02480 *
 * Li              3     -0.00629      0.00629      0.02480 *
 * Li              4      0.00629     -0.00629      0.02480 *
 * Li              5      0.00629      0.00629      0.02480 *
 * Li              6     -0.00629     -0.00629      0.02480 *
 * Li              7     -0.00629      0.00629      0.02480 *
 * Li              8      0.00629     -0.00629      0.02480 *
 * Li              9      0.01928      0.01928     -0.03114 *
 * Li             10     -0.01928     -0.01928     -0.03114 *
 * Li             11     -0.01928      0.01928     -0.03114 *
 * Li             12      0.01928     -0.01928     -0.03114 *
 * Li             13      0.01928      0.01928     -0.03114 *
 * Li             14     -0.01928     -0.01928     -0.03114 *
 * Li             15     -0.01928      0.01928     -0.03114 *
 * Li             16      0.01928     -0.01928     -0.03114 *
 * Li             17      0.00000      0.00000      0.00732 *
 * Li             18      0.00000      0.00000      0.00732 *
 * Li             19      0.00000      0.00000      0.00732 *
 * Li             20      0.00000      0.00000      0.00732 *
 * P               1      0.00000      0.00000      0.00770 *
 * P               2     -0.00000     -0.00000      0.00770 *
 * P               3      0.00000      0.00000      0.00770 *
 * P               4     -0.00000     -0.00000      0.00770 *
 * S               1      0.00000      0.00000     -0.00235 *
 * S               2      0.00000      0.00000     -0.00235 *
 * S               3      0.00000      0.00000     -0.00235 *
 * S               4      0.00000      0.00000     -0.00235 *
 *                                                          *
 ************************************************************
 
 ************************** Constrained Symmetrised Forces **************************
 *                                                                                  *
 *                           Cartesian components (eV/A)                            *
 * -------------------------------------------------------------------------------- *
 *                         x                    y                    z              *
 *                                                                                  *
 * Li              1      0.00629              0.00629              0.02480         *
 * Li              2     -0.00629             -0.00629              0.02480         *
 * Li              3     -0.00629              0.00629              0.02480         *
 * Li              4      0.00629             -0.00629              0.02480         *
 * Li              5      0.00629              0.00629              0.02480         *
 * Li              6     -0.00629             -0.00629              0.02480         *
 * Li              7     -0.00629              0.00629              0.02480         *
 * Li              8      0.00629             -0.00629              0.02480         *
 * Li              9      0.01928              0.01928             -0.03114         *
 * Li             10     -0.01928             -0.01928             -0.03114         *
 * Li             11     -0.01928              0.01928             -0.03114         *
 * Li             12      0.01928             -0.01928             -0.03114         *
 * Li             13      0.01928              0.01928             -0.03114         *
 * Li             14     -0.01928             -0.01928             -0.03114         *
 * Li             15     -0.01928              0.01928             -0.03114         *
 * Li             16      0.01928             -0.01928             -0.03114         *
 * Li             17      0.00000             -0.00000              0.00732         *
 * Li             18      0.00000             -0.00000              0.00732         *
 * Li             19      0.00000             -0.00000              0.00732         *
 * Li             20      0.00000             -0.00000              0.00732         *
 * P               1      0.00000             -0.00000              0.00770         *
 * P               2      0.00000             -0.00000              0.00770         *
 * P               3      0.00000             -0.00000              0.00770         *
 * P               4      0.00000             -0.00000              0.00770         *
 * S               1      0.00000             -0.00000             -0.00235         *
 * S               2      0.00000             -0.00000             -0.00235         *
 * S               3      0.00000             -0.00000             -0.00235         *
 * S               4      0.00000             -0.00000             -0.00235         *
 *                                                                                  *
 ************************************************************************************
 
 *********** Symmetrised Stress Tensor ***********
 *                                               *
 *          Cartesian components (GPa)           *
 * --------------------------------------------- *
 *             x             y             z     *
 *                                               *
 *  x     -0.029067      0.000000     -0.000000  *
 *  y      0.000000     -0.029067      0.000000  *
 *  z     -0.000000      0.000000      0.016791  *
 *                                               *
 *  Pressure:    0.0138                          *
 *                                               *
 *************************************************
 
 Pseudo atomic calculation performed for Li 1s2 2s1
 
 Converged in 17 iterations to a total energy of -200.4929 eV
 
 
 Pseudo atomic calculation performed for P 3s2 3p3
 
 Converged in 16 iterations to a total energy of -214.2223 eV
 
 
 Pseudo atomic calculation performed for S 3s2 3p4
 
 Converged in 19 iterations to a total energy of -299.4501 eV
 
Charge spilling parameter for spin component 1 = 0.09%
 
     Atomic Populations (Mulliken)
     -----------------------------
Species          Ion     s      p      d      f     Total  Charge (e)
=====================================================================
  Li              1     1.95   0.76   0.00   0.00   2.71     0.29
  Li              2     1.95   0.76   0.00   0.00   2.71     0.29
  Li              3     1.95   0.76   0.00   0.00   2.71     0.29
  Li              4     1.95   0.76   0.00   0.00   2.71     0.29
  Li              5     1.95   0.76   0.00   0.00   2.71     0.29
  Li              6     1.95   0.76   0.00   0.00   2.71     0.29
  Li              7     1.95   0.76   0.00   0.00   2.71     0.29
  Li              8     1.95   0.76   0.00   0.00   2.71     0.29
  Li              9     1.96   0.76   0.00   0.00   2.72     0.28
  Li             10     1.96   0.76   0.00   0.00   2.72     0.28
  Li             11     1.96   0.76   0.00   0.00   2.72     0.28
  Li             12     1.96   0.76   0.00   0.00   2.72     0.28
  Li             13     1.96   0.76   0.00   0.00   2.72     0.28
  Li             14     1.96   0.76   0.00   0.00   2.72     0.28
  Li             15     1.96   0.76   0.00   0.00   2.72     0.28
  Li             16     1.96   0.76   0.00   0.00   2.72     0.28
  Li             17     1.96   0.86   0.00   0.00   2.82     0.18
  Li             18     1.96   0.86   0.00   0.00   2.82     0.18
  Li             19     1.96   0.86   0.00   0.00   2.82     0.18
  Li             20     1.96   0.86   0.00   0.00   2.82     0.18
  P               1     1.64   4.05   0.00   0.00   5.69    -0.69
  P               2     1.64   4.05   0.00   0.00   5.69    -0.69
  P               3     1.64   4.05   0.00   0.00   5.69    -0.69
  P               4     1.64   4.05   0.00   0.00   5.69    -0.69
  S               1     1.80   4.83   0.00   0.00   6.63    -0.63
  S               2     1.80   4.83   0.00   0.00   6.63    -0.63
  S               3     1.80   4.83   0.00   0.00   6.63    -0.63
  S               4     1.80   4.83   0.00   0.00   6.63    -0.63
=====================================================================
 
                 Bond                   Population      Length (A)
======================================================================
             Li 2  -- S 4                    0.16        2.45493
             Li 1  -- S 1                    0.16        2.45493
             Li 4  -- S 4                    0.16        2.45493
             Li 4  -- S 1                    0.16        2.45493
             Li 3  -- S 4                    0.16        2.45493
             Li 3  -- S 1                    0.16        2.45493
             Li 2  -- S 1                    0.16        2.45493
             Li 1  -- S 4                    0.16        2.45493
             Li 6  -- S 3                    0.16        2.45493
             Li 5  -- S 2                    0.16        2.45493
             Li 8  -- S 3                    0.16        2.45493
             Li 8  -- S 2                    0.16        2.45493
             Li 7  -- S 3                    0.16        2.45493
             Li 7  -- S 2                    0.16        2.45493
             Li 6  -- S 2                    0.16        2.45493
             Li 5  -- S 3                    0.16        2.45493
             Li 12 -- S 4                    0.15        2.50017
             Li 12 -- S 1                    0.15        2.50017
             Li 11 -- S 4                    0.15        2.50017
             Li 11 -- S 1                    0.15        2.50017
             Li 10 -- S 4                    0.15        2.50017
             Li 10 -- S 1                    0.15        2.50017
             Li 9  -- S 4                    0.15        2.50017
             Li 9  -- S 1                    0.15        2.50017
             Li 16 -- S 3                    0.15        2.50017
             Li 16 -- S 2                    0.15        2.50017
             Li 15 -- S 3                    0.15        2.50017
             Li 15 -- S 2                    0.15        2.50017
             Li 14 -- S 3                    0.15        2.50017
             Li 14 -- S 2                    0.15        2.50017
             Li 13 -- S 3                    0.15        2.50017
             Li 13 -- S 2                    0.15        2.50017
             Li 12 -- P 1                    0.26        2.55980
             Li 11 -- P 1                    0.26        2.55980
             Li 10 -- P 2                    0.26        2.55980
             Li 9  -- P 2                    0.26        2.55980
             Li 16 -- P 3                    0.26        2.55980
             Li 15 -- P 3                    0.26        2.55980
             Li 14 -- P 4                    0.26        2.55980
             Li 13 -- P 4                    0.26        2.55980
             Li 6  -- Li 20                 -0.09        2.59267
             Li 5  -- Li 17                 -0.09        2.59267
             Li 8  -- Li 20                 -0.09        2.59267
             Li 8  -- Li 17                 -0.09        2.59267
             Li 7  -- Li 20                 -0.09        2.59267
             Li 7  -- Li 17                 -0.09        2.59267
             Li 6  -- Li 17                 -0.09        2.59267
             Li 5  -- Li 20                 -0.09        2.59267
             Li 2  -- Li 19                 -0.09        2.59267
             Li 1  -- Li 18                 -0.09        2.59267
             Li 4  -- Li 19                 -0.09        2.59267
             Li 4  -- Li 18                 -0.09        2.59267
             Li 3  -- Li 19                 -0.09        2.59267
             Li 3  -- Li 18                 -0.09        2.59267
             Li 2  -- Li 18                 -0.09        2.59267
             Li 1  -- Li 19                 -0.09        2.59267
             Li 16 -- P 4                    0.23        2.60751
             Li 15 -- P 4                    0.23        2.60751
             Li 14 -- P 3                    0.23        2.60751
             Li 13 -- P 3                    0.23        2.60751
             Li 12 -- P 2                    0.23        2.60751
             Li 11 -- P 2                    0.23        2.60751
             Li 10 -- P 1                    0.23        2.60751
             Li 9  -- P 1                    0.23        2.60751
             Li 12 -- Li 20                 -0.09        2.60932
             Li 12 -- Li 17                 -0.09        2.60932
             Li 11 -- Li 20                 -0.09        2.60932
             Li 11 -- Li 17                 -0.09        2.60932
             Li 10 -- Li 20                 -0.09        2.60932
             Li 10 -- Li 17                 -0.09        2.60932
             Li 9  -- Li 20                 -0.09        2.60932
             Li 9  -- Li 17                 -0.09        2.60932
             Li 16 -- Li 19                 -0.09        2.60932
             Li 16 -- Li 18                 -0.09        2.60932
             Li 15 -- Li 19                 -0.09        2.60932
             Li 15 -- Li 18                 -0.09        2.60932
             Li 14 -- Li 19                 -0.09        2.60932
             Li 14 -- Li 18                 -0.09        2.60932
             Li 13 -- Li 19                 -0.09        2.60932
             Li 13 -- Li 18                 -0.09        2.60932
             Li 8  -- P 2                    0.24        2.61550
             Li 6  -- P 1                    0.24        2.61550
             Li 5  -- P 1                    0.24        2.61550
             Li 7  -- P 2                    0.24        2.61550
             Li 3  -- P 4                    0.24        2.61550
             Li 2  -- P 3                    0.24        2.61550
             Li 1  -- P 3                    0.24        2.61550
             Li 4  -- P 4                    0.24        2.61550
             Li 7  -- P 1                    0.23        2.62124
             Li 6  -- P 2                    0.23        2.62124
             Li 5  -- P 2                    0.23        2.62124
             Li 8  -- P 1                    0.23        2.62124
             Li 4  -- P 3                    0.23        2.62124
             Li 2  -- P 4                    0.23        2.62124
             Li 1  -- P 4                    0.23        2.62124
             Li 3  -- P 3                    0.23        2.62124
             Li 4  -- Li 12                  0.01        2.85777
             Li 3  -- Li 11                  0.01        2.85777
             Li 2  -- Li 10                  0.01        2.85777
             Li 1  -- Li 9                   0.01        2.85777
             Li 8  -- Li 16                  0.01        2.85777
             Li 7  -- Li 15                  0.01        2.85777
             Li 6  -- Li 14                  0.01        2.85777
             Li 5  -- Li 13                  0.01        2.85777
             Li 6  -- Li 8                   0.04        2.86190
             Li 6  -- Li 7                   0.04        2.86190
             Li 5  -- Li 8                   0.04        2.86190
             Li 5  -- Li 7                   0.04        2.86190
             Li 2  -- Li 4                   0.04        2.86190
             Li 2  -- Li 3                   0.04        2.86190
             Li 1  -- Li 4                   0.04        2.86190
             Li 1  -- Li 3                   0.04        2.86190
             Li 20 -- P 2                    0.27        2.86219
             Li 20 -- P 1                    0.27        2.86219
             Li 19 -- P 4                    0.27        2.86219
             Li 19 -- P 3                    0.27        2.86219
             Li 18 -- P 4                    0.27        2.86219
             Li 18 -- P 3                    0.27        2.86219
             Li 17 -- P 2                    0.27        2.86219
             Li 17 -- P 1                    0.27        2.86219
             Li 14 -- Li 16                  0.06        2.86222
             Li 14 -- Li 15                  0.06        2.86222
             Li 13 -- Li 16                  0.06        2.86222
             Li 13 -- Li 15                  0.06        2.86222
             Li 10 -- Li 12                  0.06        2.86222
             Li 10 -- Li 11                  0.06        2.86222
             Li 9  -- Li 12                  0.06        2.86222
             Li 9  -- Li 11                  0.06        2.86222
======================================================================
 
Initialisation time =     15.24 s
Calculation time    =    124.28 s
Finalisation time   =      1.31 s
Total time          =    140.83 s
Peak Memory Use     = 588776 kB
  
Overall parallel efficiency rating: Poor (37%)                                  
  
Data was distributed by:-
G-vector (16-way); efficiency rating: Poor (38%)                                
k-point (3-way); efficiency rating: Very good (82%)                             
  
Parallel notes:
1) Calculation only took 139.7 s, so efficiency estimates may be inaccurate.    
