 +-------------------------------------------------+
 |                                                 |
 |      CCC   AA    SSS  TTTTT  EEEEE  PPPP        |
 |     C     A  A  S       T    E      P   P       |
 |     C     AAAA   SS     T    EEE    PPPP        |
 |     C     A  A     S    T    E      P           |
 |      CCC  A  A  SSS     T    EEEEE  P           |
 |                                                 |
 +-------------------------------------------------+
 |                                                 |
 | Welcome to Academic Release CASTEP version 17.21|          
 | Ab Initio Total Energy Program                  |
 |                                                 |
 | Authors:                                        |
 | M. Segall, M. Probert, C. Pickard, P. Hasnip,   |
 | S. Clark, K. Refson, J. R. Yates, M. Payne      |
 |                                                 |
 | Contributors:                                   |
 | P. Lindan, P. Haynes, J. White, V. Milman,      |
 | N. Govind, M. Gibson, P. Tulip, V. Cocula,      |
 | B. Montanari, D. Quigley, M. Glover,            |
 | L. Bernasconi, A. Perlov, M. Plummer,           |
 | E. McNellis, J. Meyer, J. Gale, D. Jochym       |
 | J. Aarons, B. Walker, R. Gillen, D. Jones       |
 | T. Green, I. J. Bush, C. J. Armstrong,          |
 | E. J. Higgins, E. L. Brown, M. S. McFly,        |
 | J. Wilkins, B-C. Shih, P. J. P. Byrne           |
 |                                                 |
 | Copyright (c) 2000 - 2017                       |
 |                                                 |
 |     Distributed under the terms of an           |
 |     Agreement between the United Kingdom        |
 |     Car-Parrinello (UKCP) Consortium,           |
 |     Daresbury Laboratory and Accelrys, Inc.     |
 |                                                 |
 | Please cite                                     |
 |                                                 |
 |     "First principles methods using CASTEP"     |
 |                                                 |
 |         Zeitschrift fuer Kristallographie       |
 |           220(5-6) pp. 567-570 (2005)           |
 |                                                 |
 | S. J. Clark, M. D. Segall, C. J. Pickard,       |
 | P. J. Hasnip, M. J. Probert, K. Refson,         |
 | M. C. Payne                                     |
 |                                                 |
 |       in all publications arising from          |
 |              your use of CASTEP                 |
 |                                                 |
 +-------------------------------------------------+
 
 
 Compiled for linux_x86_64_ifort17 on Tue, 28 Nov 2017 18:34:37 +0000
 from code version 
 056e886bd5a1+ Castep172_branch Mon, 15 May 2017 14:45:35 +0100
 Compiler: Intel Fortran 17.0.4.196; Optimisation: fast
 MATHLIBS: Intel MKL(2017.0.3) (LAPACK version 3.7.0)
 FFT Lib : mkl
 Fundamental constants values: CODATA 2010
 
 Run started: Wed, 20 Dec 2017 00:17:02 +0000
 Info: number of up-spin electrons is not equal to the
       number of down-spins but spin_polarized=false
     - consider setting spin_polarized=true.
 
 Pseudo atomic calculation performed for P 3s2 3p3
 
 Converged in 26 iterations to a total energy of -214.2223 eV
 
 
 Pseudo atomic calculation performed for K 3s2 3p6 4s1
 
 Converged in 32 iterations to a total energy of -790.3776 eV
 
 Calculation parallelised over 96 processes.
 Data is distributed by G-vector(3-way) and k-point(32-way)

 ************************************ Title ************************************
 

 ***************************** General Parameters ******************************
  
 output verbosity                               : normal  (1)
 write checkpoint data to                       : KP-35020u.check
 type of calculation                            : geometry optimization
 stress calculation                             : on
 density difference calculation                 : off
 electron localisation func (ELF) calculation   : off
 Hirshfeld analysis                             : off
 unlimited duration calculation
 timing information                             : on
 memory usage estimate                          : on
 write final potential to formatted file        : off
 write final density to formatted file          : off
 write structure in CELL formatted file         : on
 write BibTeX reference list                    : off
 write OTFG pseudopotential files               : on
 write electrostatic potential file             : on
 write bands file                               : on
 checkpoint writing                             : off
  
 output         length unit                     : A
 output           mass unit                     : amu
 output           time unit                     : ps
 output         charge unit                     : e
 output           spin unit                     : hbar/2
 output         energy unit                     : eV
 output          force unit                     : eV/A
 output       velocity unit                     : A/ps
 output       pressure unit                     : GPa
 output     inv_length unit                     : 1/A
 output      frequency unit                     : cm-1
 output force constant unit                     : eV/A**2
 output         volume unit                     : A**3
 output   IR intensity unit                     : (D/A)**2/amu
 output         dipole unit                     : D
 output         efield unit                     : eV/A/e
 output        entropy unit                     : J/mol/K
  
 wavefunctions paging                           : none
 random number generator seed                   : randomised (1702824)
 data distribution                              : optimal for this architecture
 optimization strategy                          : maximize speed(+++)

 *********************** Exchange-Correlation Parameters ***********************
  
 using functional                               : Perdew Burke Ernzerhof
 relativistic treatment                         : Koelling-Harmon
 DFT+D: Semi-empirical dispersion correction    : off

 ************************* Pseudopotential Parameters **************************
  
 pseudopotential representation                 : reciprocal space
 <beta|phi> representation                      : reciprocal space
 spin-orbit coupling                            : off

 **************************** Basis Set Parameters *****************************
  
 plane wave basis set cut-off                   :   650.0000   eV
 size of standard grid                          :     1.7500
 size of   fine   gmax                          :    22.8577   1/A
 finite basis set correction                    : none

 **************************** Electronic Parameters ****************************
  
 number of  electrons                           :  73.00    
 net charge of system                           :  0.000    
 treating system as non-spin-polarized
 number of bands                                :         52

 ********************* Electronic Minimization Parameters **********************
  
 Method: Treating system as metallic with density mixing treatment of electrons,
         and number of  SD  steps               :          1
         and number of  CG  steps               :          4
  
 total energy / atom convergence tol.           : 0.1000E-08   eV
 eigen-energy convergence tolerance             : 0.1731E-09   eV
 max force / atom convergence tol.              : ignored
 convergence tolerance window                   :          3   cycles
 max. number of SCF cycles                      :        100
 number of fixed-spin iterations                :         10
 smearing scheme                                : Gaussian
 smearing width                                 : 0.2000       eV
 Fermi energy convergence tolerance             : 0.2721E-13   eV
 periodic dipole correction                     : NONE

 ************************** Density Mixing Parameters **************************
  
 density-mixing scheme                          : Broyden
 max. length of mixing history                  :         20
 charge density mixing amplitude                : 0.8000    
 cut-off energy for mixing                      :  650.0       eV

 *********************** Population Analysis Parameters ************************
  
 Population analysis with cutoff                :  3.000       A

 ********************** Geometry Optimization Parameters ***********************
  
 optimization method                            : LBFGS
 max. no. of LBFGS updates                      : unbounded
 variable cell method                           : fixed basis quality
 max. number of steps                           :          2
 estimated bulk modulus                         :  500.0       GPa
 estimated <frequency>                          :  1668.       cm-1
 geom line minimiser                            : on
 with line minimiser tolerance                  :     0.4000
 total energy convergence tolerance             : 0.2000E-04   eV/atom
        max ionic |force| tolerance             : 0.1000E-01   eV/A
 max ionic |displacement| tolerance             : 0.1000E-02   A
   max |stress component| tolerance             : 0.1000       GPa
 convergence tolerance window                   :          2   steps
 backup results every                           : 2147483647   steps
 write geom trajectory file                     : on

 *******************************************************************************
  
 
                           -------------------------------
                                      Unit Cell
                           -------------------------------
        Real Lattice(A)                      Reciprocal Lattice(1/A)
  10.2219870   0.0000000   0.0000000        0.6146736   0.0000000   0.0823899
   0.0000000   5.1895590   0.0000000        0.0000000   1.2107359   0.0000000
  -1.3458755   0.0000000  10.0409610        0.0000000   0.0000000   0.6257554
 
                       Lattice parameters(A)       Cell Angles
                    a =   10.221987          alpha =   90.000000
                    b =    5.189559          beta  =   97.634338
                    c =   10.130759          gamma =   90.000000
 
                       Current cell volume =  532.648927       A**3
                                   density =    0.630125   AMU/A**3
                                           =    1.046348     g/cm^3
 
                           -------------------------------
                                     Cell Contents
                           -------------------------------
                         Total number of ions in cell =    9
                      Total number of species in cell =    2
                        Max number of any one species =    7
 
            xxxxxxxxxxxxxxxxxxxxxxxxxxxxxxxxxxxxxxxxxxxxxxxxxxxxxxxxxxxx
            x  Element    Atom        Fractional coordinates of atoms  x
            x            Number           u          v          w      x
            x----------------------------------------------------------x
            x  P            1         0.039224   0.000000   0.727612   x 
            x  P            2         0.882868   0.000000   0.857088   x 
            x  K            1         0.038144   0.000000   0.410155   x 
            x  K            2         0.169820   0.000000   0.030682   x 
            x  K            3         0.229137   0.500000   0.724567   x 
            x  K            4         0.468785   0.500000   0.323328   x 
            x  K            5         0.569203   0.000000   0.749716   x 
            x  K            6         0.823289   0.500000   0.039529   x 
            x  K            7         0.849421   0.500000   0.653474   x 
            xxxxxxxxxxxxxxxxxxxxxxxxxxxxxxxxxxxxxxxxxxxxxxxxxxxxxxxxxxxx
 
 
                         No user defined ionic velocities
 
                           -------------------------------
                                   Details of Species
                           -------------------------------
 
                               Mass of species in AMU
                                    P   30.9737600
                                    K   39.0983000
 
                          Electric Quadrupole Moment (Barn)
                                    P    1.0000000 No Isotope Defined
                                    K    0.0585000 Isotope 39
 
                          Files used for pseudopotentials:
                                    P P_OTF.usp
                                    K K_OTF.usp
 
                           -------------------------------
                              k-Points For BZ Sampling
                           -------------------------------
                       MP grid size for SCF calculation is  4  7  4
                            with an offset of   0.000  0.000  0.000
                       Number of kpoints used =            32
 
                           -------------------------------
                               Symmetry and Constraints
                           -------------------------------
 
                      Maximum deviation from symmetry = 0.188002E-14     ANG
 
                      Number of symmetry operations   =           2
                      Number of ionic constraints     =           3
                      Point group of crystal =     3: Cs, m, m
                      Space group of crystal =     6: Pm, P -2y
 
             Set iprint > 1 for details on symmetry rotations/translations
 
                         Centre of mass is constrained
             Set iprint > 1 for details of linear ionic constraints
 
                         Number of cell constraints= 2
                         Cell constraints are:  1 2 3 0 5 0
 
                         External pressure/stress (GPa)
                          0.00000   0.00000   0.00000
                                    0.00000   0.00000
                                              0.00000
  
+---------------- MEMORY AND SCRATCH DISK ESTIMATES PER PROCESS --------------+
|                                                     Memory          Disk    |
| Baseline code, static data and system overhead      553.0 MB         0.0 MB |
| BLAS internal memory storage                          0.0 MB         0.0 MB |
| Model and support data                              180.7 MB         0.0 MB |
| Electronic energy minimisation requirements          53.7 MB         0.0 MB |
| Force calculation requirements                       11.2 MB         0.0 MB |
| Stress calculation requirements                      12.4 MB         0.0 MB |
|                                               ----------------------------- |
| Approx. total storage required per process          787.4 MB         0.0 MB |
|                                                                             |
| Requirements will fluctuate during execution and may exceed these estimates |
+-----------------------------------------------------------------------------+
Calculating total energy with cut-off of  650.000 eV.
------------------------------------------------------------------------ <-- SCF
SCF loop      Energy           Fermi           Energy gain       Timer   <-- SCF
                               energy          per atom          (sec)   <-- SCF
------------------------------------------------------------------------ <-- SCF
Initial  -5.28981451E+003  0.00000000E+000                         3.31  <-- SCF
      1  -5.70426154E+003  3.08591148E+000   4.60496697E+001       5.53  <-- SCF
      2  -5.97541326E+003  1.96793387E+000   3.01279688E+001       7.02  <-- SCF
      3  -5.98542786E+003  1.66411035E+000   1.11273321E+000       8.82  <-- SCF
      4  -5.98076026E+003  1.75793235E+000  -5.18622025E-001      11.48  <-- SCF
      5  -5.98059142E+003  1.68904512E+000  -1.87596738E-002      14.04  <-- SCF
      6  -5.98052877E+003  1.78791256E+000  -6.96136953E-003      16.69  <-- SCF
      7  -5.98050667E+003  1.73344117E+000  -2.45564972E-003      19.49  <-- SCF
      8  -5.98050630E+003  1.73571924E+000  -4.07472560E-005      22.06  <-- SCF
      9  -5.98050666E+003  1.73850887E+000   3.91545095E-005      24.65  <-- SCF
     10  -5.98050674E+003  1.74025881E+000   9.53139896E-006      27.31  <-- SCF
     11  -5.98050675E+003  1.74017329E+000   1.31607964E-006      30.27  <-- SCF
     12  -5.98050676E+003  1.74027126E+000   3.16828103E-007      32.77  <-- SCF
     13  -5.98050676E+003  1.74035656E+000   1.57544499E-007      35.07  <-- SCF
     14  -5.98050676E+003  1.74038161E+000   2.64994029E-008      37.25  <-- SCF
     15  -5.98050676E+003  1.74038426E+000   2.69450498E-009      39.24  <-- SCF
     16  -5.98050676E+003  1.74038741E+000   7.61535371E-010      40.93  <-- SCF
     17  -5.98050676E+003  1.74038972E+000   1.37234483E-010      42.56  <-- SCF
------------------------------------------------------------------------ <-- SCF
 
Final energy, E             =  -5980.359062459     eV
Final free energy (E-TS)    =  -5980.506758471     eV
(energies not corrected for finite basis set)
 
NB est. 0K energy (E-0.5TS)      =  -5980.432910465     eV
 

WARNING - doing cell minimisation without finite basis correction:
        => now searching for a stationary and not minimum energy
 
+---------------- MEMORY AND SCRATCH DISK ESTIMATES PER PROCESS --------------+
|                                                     Memory          Disk    |
| Model and support data                              188.1 MB         0.0 MB |
| Electronic energy minimisation requirements          53.7 MB         0.0 MB |
| Geometry minimisation requirements                   60.3 MB         0.0 MB |
|                                               ----------------------------- |
| Approx. total storage required per process          302.1 MB         0.0 MB |
|                                                                             |
| Requirements will fluctuate during execution and may exceed these estimates |
+-----------------------------------------------------------------------------+
 
 
 ************************** Constrained Symmetrised Forces **************************
 *                                                                                  *
 *                           Cartesian components (eV/A)                            *
 * -------------------------------------------------------------------------------- *
 *                         x                    y                    z              *
 *                                                                                  *
 * P               1     -0.02860              0.00000             -0.03822         *
 * P               2     -0.00991              0.00000             -0.01148         *
 * K               1      0.00724              0.00000             -0.00278         *
 * K               2      0.02680              0.00000              0.01912         *
 * K               3     -0.00001              0.00000             -0.02529         *
 * K               4     -0.00838              0.00000             -0.00467         *
 * K               5     -0.00464              0.00000              0.04344         *
 * K               6      0.00625              0.00000              0.00693         *
 * K               7      0.01125              0.00000              0.01295         *
 *                                                                                  *
 ************************************************************************************
 
 *********** Symmetrised Stress Tensor ***********
 *                                               *
 *          Cartesian components (GPa)           *
 * --------------------------------------------- *
 *             x             y             z     *
 *                                               *
 *  x     -0.006946      0.000000     -0.000034  *
 *  y      0.000000      0.066510      0.000000  *
 *  z     -0.000034      0.000000     -0.012792  *
 *                                               *
 *  Pressure:   -0.0156                          *
 *                                               *
 *************************************************
 LBFGS: finished iteration     0 with enthalpy= -5.98050676E+003 eV
  
 +-----------+-----------------+-----------------+------------+-----+ <-- LBFGS
 | Parameter |      value      |    tolerance    |    units   | OK? | <-- LBFGS
 +-----------+-----------------+-----------------+------------+-----+ <-- LBFGS
 |  dE/ion   |   0.000000E+000 |   2.000000E-005 |         eV | No  | <-- LBFGS
 |  |F|max   |   4.773423E-002 |   1.000000E-002 |       eV/A | No  | <-- LBFGS
 |  |dR|max  |   0.000000E+000 |   1.000000E-003 |          A | No  | <-- LBFGS
 |   Smax    |   6.650960E-002 |   1.000000E-001 |        GPa | Yes | <-- LBFGS
 +-----------+-----------------+-----------------+------------+-----+ <-- LBFGS
  

================================================================================
 Starting LBFGS iteration          1 ...
================================================================================
  
 +------------+-------------+-------------+-----------------+ <-- min LBFGS
 |    Step    |   lambda    |   F.delta'  |    enthalpy     | <-- min LBFGS
 +------------+-------------+-------------+-----------------+ <-- min LBFGS
 |  previous  |    0.000000 |    0.020222 |    -5980.506758 | <-- min LBFGS
 +------------+-------------+-------------+-----------------+ <-- min LBFGS
  

--------------------------------------------------------------------------------
 LBFGS: starting iteration         1 with trial guess (lambda=  1.000000)
--------------------------------------------------------------------------------
 
                           -------------------------------
                                      Unit Cell
                           -------------------------------
        Real Lattice(A)              Reciprocal Lattice(1/A)
  10.2220343   0.0000000   0.0000002        0.6146707   0.0000000   0.0823892
   0.0000000   5.1893289   0.0000000        0.0000000   1.2107896   0.0000000
  -1.3458815   0.0000000  10.0410466       -0.0000000   0.0000000   0.6257500
 
                       Lattice parameters(A)       Cell Angles
                    a =   10.222034          alpha =   90.000000
                    b =    5.189329          beta  =   97.634306
                    c =   10.130845          gamma =   90.000000
 
                Current cell volume =  532.632319 A**3
 
                           -------------------------------
                                     Cell Contents
                           -------------------------------
 
            xxxxxxxxxxxxxxxxxxxxxxxxxxxxxxxxxxxxxxxxxxxxxxxxxxxxxxxxxxxxxxxxx
            x  Element         Atom        Fractional coordinates of atoms  x
            x                 Number           u          v          w      x
            x---------------------------------------------------------------x
            x  P                 1         0.039215   0.000000   0.727602   x
            x  P                 2         0.882865   0.000000   0.857085   x
            x  K                 1         0.038146   0.000000   0.410154   x
            x  K                 2         0.169828   0.000000   0.030687   x
            x  K                 3         0.229136   0.500000   0.724560   x
            x  K                 4         0.468783   0.500000   0.323327   x
            x  K                 5         0.569203   0.000000   0.749727   x
            x  K                 6         0.823291   0.500000   0.039531   x
            x  K                 7         0.849424   0.500000   0.653477   x
            xxxxxxxxxxxxxxxxxxxxxxxxxxxxxxxxxxxxxxxxxxxxxxxxxxxxxxxxxxxxxxxxx
 
 
------------------------------------------------------------------------ <-- SCF
SCF loop      Energy           Fermi           Energy gain       Timer   <-- SCF
                               energy          per atom          (sec)   <-- SCF
------------------------------------------------------------------------ <-- SCF
Initial  -5.98035906E+003  0.00000000E+000                        50.81  <-- SCF
      1  -5.98050681E+003  1.74068401E+000   1.64168823E-002      52.48  <-- SCF
      2  -5.98050681E+003  1.74068400E+000   4.02044616E-007      55.18  <-- SCF
      3  -5.98050679E+003  1.74027342E+000  -3.05561805E-006      57.48  <-- SCF
      4  -5.98050679E+003  1.74066907E+000  -1.32107310E-007      59.79  <-- SCF
      5  -5.98050679E+003  1.74040875E+000  -1.88211465E-008      62.11  <-- SCF
      6  -5.98050679E+003  1.74050676E+000  -9.78566937E-009      64.24  <-- SCF
      7  -5.98050679E+003  1.74050461E+000  -3.90134347E-010      65.87  <-- SCF
      8  -5.98050679E+003  1.74049526E+000   6.59103622E-011      67.45  <-- SCF
------------------------------------------------------------------------ <-- SCF
 
Final energy, E             =  -5980.359086110     eV
Final free energy (E-TS)    =  -5980.506785513     eV
(energies not corrected for finite basis set)
 
NB est. 0K energy (E-0.5TS)      =  -5980.432935812     eV
 
 
 ************************** Constrained Symmetrised Forces **************************
 *                                                                                  *
 *                           Cartesian components (eV/A)                            *
 * -------------------------------------------------------------------------------- *
 *                         x                    y                    z              *
 *                                                                                  *
 * P               1     -0.02858              0.00000             -0.03780         *
 * P               2     -0.00960              0.00000             -0.01148         *
 * K               1      0.00733              0.00000             -0.00276         *
 * K               2      0.02670              0.00000              0.01891         *
 * K               3      0.00004              0.00000             -0.02553         *
 * K               4     -0.00836              0.00000             -0.00463         *
 * K               5     -0.00470              0.00000              0.04357         *
 * K               6      0.00615              0.00000              0.00697         *
 * K               7      0.01103              0.00000              0.01275         *
 *                                                                                  *
 ************************************************************************************
 
 *********** Symmetrised Stress Tensor ***********
 *                                               *
 *          Cartesian components (GPa)           *
 * --------------------------------------------- *
 *             x             y             z     *
 *                                               *
 *  x     -0.006991      0.000000     -0.000067  *
 *  y      0.000000      0.065928      0.000000  *
 *  z     -0.000067      0.000000     -0.012695  *
 *                                               *
 *  Pressure:   -0.0154                          *
 *                                               *
 *************************************************
  
 +------------+-------------+-------------+-----------------+ <-- min LBFGS
 |    Step    |   lambda    |   F.delta'  |    enthalpy     | <-- min LBFGS
 +------------+-------------+-------------+-----------------+ <-- min LBFGS
 |  previous  |    0.000000 |    0.020222 |    -5980.506758 | <-- min LBFGS
 | trial step |    1.000000 |    0.020122 |    -5980.506786 | <-- min LBFGS
 +------------+-------------+-------------+-----------------+ <-- min LBFGS
  

--------------------------------------------------------------------------------
 LBFGS: improving iteration         1 with line minimization (lambda=202.637316)
--------------------------------------------------------------------------------
 
                           -------------------------------
                                      Unit Cell
                           -------------------------------
        Real Lattice(A)              Reciprocal Lattice(1/A)
  10.2315794   0.0000000   0.0000466        0.6140969   0.0000000   0.0822450
   0.0000000   5.1429314   0.0000000        0.0000000   1.2217128   0.0000000
  -1.3470928   0.0000000  10.0583071       -0.0000028   0.0000000   0.6246758
 
                       Lattice parameters(A)       Cell Angles
                    a =   10.231579          alpha =   90.000000
                    b =    5.142931          beta  =   97.627878
                    c =   10.148113          gamma =   90.000000
 
                Current cell volume =  529.271570 A**3
 
                           -------------------------------
                                     Cell Contents
                           -------------------------------
 
            xxxxxxxxxxxxxxxxxxxxxxxxxxxxxxxxxxxxxxxxxxxxxxxxxxxxxxxxxxxxxxxxx
            x  Element         Atom        Fractional coordinates of atoms  x
            x                 Number           u          v          w      x
            x---------------------------------------------------------------x
            x  P                 1         0.037472   0.000000   0.725590   x
            x  P                 2         0.882273   0.000000   0.856480   x
            x  K                 1         0.038501   0.000000   0.410008   x
            x  K                 2         0.171346   0.000000   0.031694   x
            x  K                 3         0.228960   0.500000   0.723229   x
            x  K                 4         0.468317   0.500000   0.323081   x
            x  K                 5         0.569264   0.000000   0.752014   x
            x  K                 6         0.823662   0.500000   0.039895   x
            x  K                 7         0.850096   0.500000   0.654159   x
            xxxxxxxxxxxxxxxxxxxxxxxxxxxxxxxxxxxxxxxxxxxxxxxxxxxxxxxxxxxxxxxxx
 
 
------------------------------------------------------------------------ <-- SCF
SCF loop      Energy           Fermi           Energy gain       Timer   <-- SCF
                               energy          per atom          (sec)   <-- SCF
------------------------------------------------------------------------ <-- SCF
Initial  -5.97911903E+003  0.00000000E+000                        76.99  <-- SCF
      1  -5.98155170E+003  1.80001730E+000   2.70297046E-001      78.62  <-- SCF
      2  -5.98169047E+003  1.79943857E+000   1.54191899E-002      81.31  <-- SCF
      3  -5.98057448E+003  1.71289561E+000  -1.23999387E-001      83.56  <-- SCF
      4  -5.98052115E+003  1.80113166E+000  -5.92492272E-003      85.88  <-- SCF
      5  -5.98051206E+003  1.74475806E+000  -1.01048138E-003      88.37  <-- SCF
      6  -5.98050849E+003  1.76399201E+000  -3.96836168E-004      91.12  <-- SCF
      7  -5.98050834E+003  1.76326052E+000  -1.61219925E-005      93.88  <-- SCF
      8  -5.98050835E+003  1.76167248E+000   6.88692305E-007      96.29  <-- SCF
      9  -5.98050836E+003  1.76195379E+000   1.38528492E-006      99.13  <-- SCF
     10  -5.98050836E+003  1.76193642E+000   3.87596412E-007     101.51  <-- SCF
     11  -5.98050836E+003  1.76195045E+000   9.03379283E-008     103.80  <-- SCF
     12  -5.98050836E+003  1.76195640E+000   1.08146272E-008     105.83  <-- SCF
     13  -5.98050836E+003  1.76195557E+000   3.00695619E-009     107.75  <-- SCF
     14  -5.98050836E+003  1.76195583E+000   7.81815483E-010     109.38  <-- SCF
     15  -5.98050836E+003  1.76195733E+000   1.20993207E-010     110.96  <-- SCF
------------------------------------------------------------------------ <-- SCF
 
Final energy, E             =  -5980.360007932     eV
Final free energy (E-TS)    =  -5980.508364707     eV
(energies not corrected for finite basis set)
 
NB est. 0K energy (E-0.5TS)      =  -5980.434186319     eV
 
 
 ************************** Constrained Symmetrised Forces **************************
 *                                                                                  *
 *                           Cartesian components (eV/A)                            *
 * -------------------------------------------------------------------------------- *
 *                         x                    y                    z              *
 *                                                                                  *
 * P               1     -0.02225             -0.00000              0.05450         *
 * P               2      0.05647             -0.00000             -0.00813         *
 * K               1      0.00809              0.00000             -0.01458         *
 * K               2     -0.00781              0.00000             -0.03992         *
 * K               3      0.00554             -0.00000             -0.02243         *
 * K               4     -0.00288              0.00000             -0.00047         *
 * K               5     -0.01072             -0.00000              0.03797         *
 * K               6      0.00356              0.00000              0.01414         *
 * K               7     -0.03000              0.00000             -0.02109         *
 *                                                                                  *
 ************************************************************************************
 
 *********** Symmetrised Stress Tensor ***********
 *                                               *
 *          Cartesian components (GPa)           *
 * --------------------------------------------- *
 *             x             y             z     *
 *                                               *
 *  x     -0.015156      0.000000     -0.008120  *
 *  y      0.000000     -0.056085      0.000000  *
 *  z     -0.008120      0.000000      0.005221  *
 *                                               *
 *  Pressure:    0.0220                          *
 *                                               *
 *************************************************
  
 +------------+-------------+-------------+-----------------+ <-- min LBFGS
 |    Step    |   lambda    |   F.delta'  |    enthalpy     | <-- min LBFGS
 +------------+-------------+-------------+-----------------+ <-- min LBFGS
 |  previous  |    0.000000 |    0.020222 |    -5980.506758 | <-- min LBFGS
 | trial step |    1.000000 |    0.020122 |    -5980.506786 | <-- min LBFGS
 |  line step |  202.637316 |   -0.007856 |    -5980.508365 | <-- min LBFGS
 +------------+-------------+-------------+-----------------+ <-- min LBFGS
  
 LBFGS: finished iteration     1 with enthalpy= -5.98050836E+003 eV
  
 +-----------+-----------------+-----------------+------------+-----+ <-- LBFGS
 | Parameter |      value      |    tolerance    |    units   | OK? | <-- LBFGS
 +-----------+-----------------+-----------------+------------+-----+ <-- LBFGS
 |  dE/ion   |   1.784706E-004 |   2.000000E-005 |         eV | No  | <-- LBFGS
 |  |F|max   |   5.886402E-002 |   1.000000E-002 |       eV/A | No  | <-- LBFGS
 |  |dR|max  |   2.539302E-002 |   1.000000E-003 |          A | No  | <-- LBFGS
 |   Smax    |   5.608530E-002 |   1.000000E-001 |        GPa | Yes | <-- LBFGS
 +-----------+-----------------+-----------------+------------+-----+ <-- LBFGS
  

================================================================================
 Starting LBFGS iteration          2 ...
================================================================================
  
 +------------+-------------+-------------+-----------------+ <-- min LBFGS
 |    Step    |   lambda    |   F.delta'  |    enthalpy     | <-- min LBFGS
 +------------+-------------+-------------+-----------------+ <-- min LBFGS
 |  previous  |    0.000000 |    0.008162 |    -5980.508365 | <-- min LBFGS
 +------------+-------------+-------------+-----------------+ <-- min LBFGS
  

--------------------------------------------------------------------------------
 LBFGS: starting iteration         2 with trial guess (lambda=  1.000000)
--------------------------------------------------------------------------------
 
                           -------------------------------
                                      Unit Cell
                           -------------------------------
        Real Lattice(A)              Reciprocal Lattice(1/A)
  10.2290145   0.0000000   0.0000733        0.6142507   0.0000000   0.0822827
   0.0000000   5.1558983   0.0000000        0.0000000   1.2186403   0.0000000
  -1.3467288   0.0000000  10.0535052       -0.0000045   0.0000000   0.6249740
 
                       Lattice parameters(A)       Cell Angles
                    a =   10.229014          alpha =   90.000000
                    b =    5.155898          beta  =   97.629291
                    c =   10.143305          gamma =   90.000000
 
                Current cell volume =  530.219942 A**3
 
                           -------------------------------
                                     Cell Contents
                           -------------------------------
 
            xxxxxxxxxxxxxxxxxxxxxxxxxxxxxxxxxxxxxxxxxxxxxxxxxxxxxxxxxxxxxxxxx
            x  Element         Atom        Fractional coordinates of atoms  x
            x                 Number           u          v          w      x
            x---------------------------------------------------------------x
            x  P                 1         0.037951   0.000000   0.726156   x
            x  P                 2         0.882447   0.000000   0.856646   x
            x  K                 1         0.038404   0.000000   0.410046   x
            x  K                 2         0.170924   0.000000   0.031408   x
            x  K                 3         0.229009   0.500000   0.723593   x
            x  K                 4         0.468445   0.500000   0.323149   x
            x  K                 5         0.569246   0.000000   0.751389   x
            x  K                 6         0.823560   0.500000   0.039797   x
            x  K                 7         0.849904   0.500000   0.653967   x
            xxxxxxxxxxxxxxxxxxxxxxxxxxxxxxxxxxxxxxxxxxxxxxxxxxxxxxxxxxxxxxxxx
 
 
------------------------------------------------------------------------ <-- SCF
SCF loop      Energy           Fermi           Energy gain       Timer   <-- SCF
                               energy          per atom          (sec)   <-- SCF
------------------------------------------------------------------------ <-- SCF
Initial  -5.98026537E+003  0.00000000E+000                       119.10  <-- SCF
      1  -5.98058832E+003  1.74568473E+000   3.58830134E-002     120.74  <-- SCF
      2  -5.98059912E+003  1.74564248E+000   1.20052884E-003     123.46  <-- SCF
      3  -5.98051306E+003  1.76765914E+000  -9.56273812E-003     125.72  <-- SCF
      4  -5.98050948E+003  1.74681659E+000  -3.97802224E-004     128.07  <-- SCF
      5  -5.98050900E+003  1.76077196E+000  -5.31099391E-005     130.63  <-- SCF
      6  -5.98050873E+003  1.75528222E+000  -3.00063469E-005     133.31  <-- SCF
      7  -5.98050872E+003  1.75547664E+000  -1.12118579E-006     136.16  <-- SCF
      8  -5.98050872E+003  1.75598464E+000   6.86523879E-008     138.74  <-- SCF
      9  -5.98050872E+003  1.75591938E+000   1.08567256E-007     141.40  <-- SCF
     10  -5.98050872E+003  1.75590240E+000   3.38244760E-008     143.54  <-- SCF
     11  -5.98050872E+003  1.75590435E+000   7.10525735E-009     145.59  <-- SCF
     12  -5.98050872E+003  1.75590545E+000   9.02207161E-010     147.35  <-- SCF
     13  -5.98050872E+003  1.75590454E+000   2.90710242E-010     148.93  <-- SCF
     14  -5.98050872E+003  1.75590370E+000   1.16266910E-010     150.52  <-- SCF
------------------------------------------------------------------------ <-- SCF
 
Final energy, E             =  -5980.360541089     eV
Final free energy (E-TS)    =  -5980.508719355     eV
(energies not corrected for finite basis set)
 
NB est. 0K energy (E-0.5TS)      =  -5980.434630222     eV
 
 
 ************************** Constrained Symmetrised Forces **************************
 *                                                                                  *
 *                           Cartesian components (eV/A)                            *
 * -------------------------------------------------------------------------------- *
 *                         x                    y                    z              *
 *                                                                                  *
 * P               1     -0.02315              0.00000              0.02794         *
 * P               2      0.03676              0.00000             -0.00798         *
 * K               1      0.00790              0.00000             -0.01126         *
 * K               2      0.00162              0.00000             -0.02414         *
 * K               3      0.00390              0.00000             -0.02341         *
 * K               4     -0.00448              0.00000             -0.00173         *
 * K               5     -0.00898              0.00000              0.03972         *
 * K               6      0.00438              0.00000              0.01209         *
 * K               7     -0.01795              0.00000             -0.01123         *
 *                                                                                  *
 ************************************************************************************
 
 *********** Symmetrised Stress Tensor ***********
 *                                               *
 *          Cartesian components (GPa)           *
 * --------------------------------------------- *
 *             x             y             z     *
 *                                               *
 *  x     -0.013042      0.000000     -0.005031  *
 *  y      0.000000     -0.020813      0.000000  *
 *  z     -0.005031      0.000000      0.000549  *
 *                                               *
 *  Pressure:    0.0111                          *
 *                                               *
 *************************************************
  
 +------------+-------------+-------------+-----------------+ <-- min LBFGS
 |    Step    |   lambda    |   F.delta'  |    enthalpy     | <-- min LBFGS
 +------------+-------------+-------------+-----------------+ <-- min LBFGS
 |  previous  |    0.000000 |    0.008162 |    -5980.508365 | <-- min LBFGS
 | trial step |    1.000000 |    0.000127 |    -5980.508719 | <-- min LBFGS
 +------------+-------------+-------------+-----------------+ <-- min LBFGS
  
 LBFGS: finished iteration     2 with enthalpy= -5.98050872E+003 eV
  
 +-----------+-----------------+-----------------+------------+-----+ <-- LBFGS
 | Parameter |      value      |    tolerance    |    units   | OK? | <-- LBFGS
 +-----------+-----------------+-----------------+------------+-----+ <-- LBFGS
 |  dE/ion   |   3.940542E-005 |   2.000000E-005 |         eV | No  | <-- LBFGS
 |  |F|max   |   4.072022E-002 |   1.000000E-002 |       eV/A | No  | <-- LBFGS
 |  |dR|max  |   7.040708E-003 |   1.000000E-003 |          A | No  | <-- LBFGS
 |   Smax    |   2.081308E-002 |   1.000000E-001 |        GPa | Yes | <-- LBFGS
 +-----------+-----------------+-----------------+------------+-----+ <-- LBFGS
  
 LBFGS: WARNING - Geometry optimization failed to converge after          2 steps

================================================================================
 LBFGS: Final Configuration:
================================================================================
 
                           -------------------------------
                                      Unit Cell
                           -------------------------------
        Real Lattice(A)              Reciprocal Lattice(1/A)
  10.2290145   0.0000000   0.0000733        0.6142507   0.0000000   0.0822827
   0.0000000   5.1558983   0.0000000        0.0000000   1.2186403   0.0000000
  -1.3467288   0.0000000  10.0535052       -0.0000045   0.0000000   0.6249740
 
                       Lattice parameters(A)       Cell Angles
                    a =   10.229014          alpha =   90.000000
                    b =    5.155898          beta  =   97.629291
                    c =   10.143305          gamma =   90.000000
 
                Current cell volume =  530.219942 A**3
 
                           -------------------------------
                                     Cell Contents
                           -------------------------------
 
            xxxxxxxxxxxxxxxxxxxxxxxxxxxxxxxxxxxxxxxxxxxxxxxxxxxxxxxxxxxxxxxxx
            x  Element         Atom        Fractional coordinates of atoms  x
            x                 Number           u          v          w      x
            x---------------------------------------------------------------x
            x  P                 1         0.037951   0.000000   0.726156   x
            x  P                 2         0.882447   0.000000   0.856646   x
            x  K                 1         0.038404   0.000000   0.410046   x
            x  K                 2         0.170924   0.000000   0.031408   x
            x  K                 3         0.229009   0.500000   0.723593   x
            x  K                 4         0.468445   0.500000   0.323149   x
            x  K                 5         0.569246   0.000000   0.751389   x
            x  K                 6         0.823560   0.500000   0.039797   x
            x  K                 7         0.849904   0.500000   0.653967   x
            xxxxxxxxxxxxxxxxxxxxxxxxxxxxxxxxxxxxxxxxxxxxxxxxxxxxxxxxxxxxxxxxx
 
 
 LBFGS: Final Enthalpy     = -5.98050872E+003 eV
 LBFGS: Final <frequency>  =    1349.83370 cm-1
 LBFGS: Final bulk modulus =      55.35910 GPa
  
  **********************************************************
  *** There were at least     2 warnings during this run ***
  *** => please check the whole of this file carefully!  ***
  **********************************************************
 
 ******************* Unconstrained Forces *******************
 *                                                          *
 *               Cartesian components (eV/A)                *
 * -------------------------------------------------------- *
 *                         x            y            z      *
 *                                                          *
 * P               1     -0.02315      0.00000      0.02794 *
 * P               2      0.03676      0.00000     -0.00798 *
 * K               1      0.00790      0.00000     -0.01126 *
 * K               2      0.00162      0.00000     -0.02414 *
 * K               3      0.00390      0.00000     -0.02341 *
 * K               4     -0.00448      0.00000     -0.00173 *
 * K               5     -0.00898      0.00000      0.03972 *
 * K               6      0.00438      0.00000      0.01209 *
 * K               7     -0.01795      0.00000     -0.01123 *
 *                                                          *
 ************************************************************
 
 ************************** Constrained Symmetrised Forces **************************
 *                                                                                  *
 *                           Cartesian components (eV/A)                            *
 * -------------------------------------------------------------------------------- *
 *                         x                    y                    z              *
 *                                                                                  *
 * P               1     -0.02315              0.00000              0.02794         *
 * P               2      0.03676              0.00000             -0.00798         *
 * K               1      0.00790              0.00000             -0.01126         *
 * K               2      0.00162              0.00000             -0.02414         *
 * K               3      0.00390              0.00000             -0.02341         *
 * K               4     -0.00448              0.00000             -0.00173         *
 * K               5     -0.00898              0.00000              0.03972         *
 * K               6      0.00438              0.00000              0.01209         *
 * K               7     -0.01795              0.00000             -0.01123         *
 *                                                                                  *
 ************************************************************************************
 
 *********** Symmetrised Stress Tensor ***********
 *                                               *
 *          Cartesian components (GPa)           *
 * --------------------------------------------- *
 *             x             y             z     *
 *                                               *
 *  x     -0.013042      0.000000     -0.005031  *
 *  y      0.000000     -0.020813      0.000000  *
 *  z     -0.005031      0.000000      0.000549  *
 *                                               *
 *  Pressure:    0.0111                          *
 *                                               *
 *************************************************
 
 Pseudo atomic calculation performed for P 3s2 3p3
 
 Converged in 26 iterations to a total energy of -214.2223 eV
 
 
 Pseudo atomic calculation performed for K 3s2 3p6 4s1
 
 Converged in 32 iterations to a total energy of -790.3776 eV
 
Charge spilling parameter for spin component 1 = 0.48%
 
     Atomic Populations (Mulliken)
     -----------------------------
Species          Ion     s      p      d      f     Total  Charge (e)
=====================================================================
  P               1     1.81   4.03   0.00   0.00   5.83    -0.83
  P               2     1.81   4.02   0.00   0.00   5.84    -0.84
  K               1     2.40   6.37   0.00   0.00   8.77     0.23
  K               2     2.27   6.47   0.00   0.00   8.75     0.25
  K               3     2.31   6.46   0.00   0.00   8.78     0.22
  K               4     2.51   6.41   0.00   0.00   8.92     0.08
  K               5     2.40   6.43   0.00   0.00   8.83     0.17
  K               6     2.29   6.32   0.00   0.00   8.62     0.38
  K               7     2.15   6.53   0.00   0.00   8.68     0.32
=====================================================================
 
                 Bond                   Population      Length (A)
======================================================================
               P 1 -- P 2                    0.58        2.20025
======================================================================
 
Initialisation time =      1.53 s
Calculation time    =    157.57 s
Finalisation time   =      0.17 s
Total time          =    159.26 s
Peak Memory Use     = 941772 kB
  
Overall parallel efficiency rating: Satisfactory (67%)                          
  
Data was distributed by:-
G-vector (3-way); efficiency rating: Good (70%)                                 
k-point (32-way); efficiency rating: Excellent (93%)                            
  
Parallel notes:
1) Calculation only took 159.1 s, so efficiency estimates may be inaccurate.    
 +-------------------------------------------------+
 |                                                 |
 |      CCC   AA    SSS  TTTTT  EEEEE  PPPP        |
 |     C     A  A  S       T    E      P   P       |
 |     C     AAAA   SS     T    EEE    PPPP        |
 |     C     A  A     S    T    E      P           |
 |      CCC  A  A  SSS     T    EEEEE  P           |
 |                                                 |
 +-------------------------------------------------+
 |                                                 |
 | Welcome to Academic Release CASTEP version 17.21|          
 | Ab Initio Total Energy Program                  |
 |                                                 |
 | Authors:                                        |
 | M. Segall, M. Probert, C. Pickard, P. Hasnip,   |
 | S. Clark, K. Refson, J. R. Yates, M. Payne      |
 |                                                 |
 | Contributors:                                   |
 | P. Lindan, P. Haynes, J. White, V. Milman,      |
 | N. Govind, M. Gibson, P. Tulip, V. Cocula,      |
 | B. Montanari, D. Quigley, M. Glover,            |
 | L. Bernasconi, A. Perlov, M. Plummer,           |
 | E. McNellis, J. Meyer, J. Gale, D. Jochym       |
 | J. Aarons, B. Walker, R. Gillen, D. Jones       |
 | T. Green, I. J. Bush, C. J. Armstrong,          |
 | E. J. Higgins, E. L. Brown, M. S. McFly,        |
 | J. Wilkins, B-C. Shih, P. J. P. Byrne           |
 |                                                 |
 | Copyright (c) 2000 - 2017                       |
 |                                                 |
 |     Distributed under the terms of an           |
 |     Agreement between the United Kingdom        |
 |     Car-Parrinello (UKCP) Consortium,           |
 |     Daresbury Laboratory and Accelrys, Inc.     |
 |                                                 |
 | Please cite                                     |
 |                                                 |
 |     "First principles methods using CASTEP"     |
 |                                                 |
 |         Zeitschrift fuer Kristallographie       |
 |           220(5-6) pp. 567-570 (2005)           |
 |                                                 |
 | S. J. Clark, M. D. Segall, C. J. Pickard,       |
 | P. J. Hasnip, M. J. Probert, K. Refson,         |
 | M. C. Payne                                     |
 |                                                 |
 |       in all publications arising from          |
 |              your use of CASTEP                 |
 |                                                 |
 +-------------------------------------------------+
 
 
 Compiled for linux_x86_64_ifort17 on Tue, 28 Nov 2017 18:34:37 +0000
 from code version 
 056e886bd5a1+ Castep172_branch Mon, 15 May 2017 14:45:35 +0100
 Compiler: Intel Fortran 17.0.4.196; Optimisation: fast
 MATHLIBS: Intel MKL(2017.0.3) (LAPACK version 3.7.0)
 FFT Lib : mkl
 Fundamental constants values: CODATA 2010
 
 Run started: Wed, 20 Dec 2017 00:19:44 +0000
 Info: number of up-spin electrons is not equal to the
       number of down-spins but spin_polarized=false
     - consider setting spin_polarized=true.
 
 Pseudo atomic calculation performed for P 3s2 3p3
 
 Converged in 26 iterations to a total energy of -214.2223 eV
 
 
 Pseudo atomic calculation performed for K 3s2 3p6 4s1
 
 Converged in 32 iterations to a total energy of -790.3776 eV
 
 Calculation parallelised over 96 processes.
 Data is distributed by G-vector(3-way) and k-point(32-way)

 ************************************ Title ************************************
 

 ***************************** General Parameters ******************************
  
 output verbosity                               : normal  (1)
 write checkpoint data to                       : KP-35020u.check
 type of calculation                            : geometry optimization
 stress calculation                             : on
 density difference calculation                 : off
 electron localisation func (ELF) calculation   : off
 Hirshfeld analysis                             : off
 unlimited duration calculation
 timing information                             : on
 memory usage estimate                          : on
 write final potential to formatted file        : off
 write final density to formatted file          : off
 write structure in CELL formatted file         : on
 write BibTeX reference list                    : off
 write OTFG pseudopotential files               : on
 write electrostatic potential file             : on
 write bands file                               : on
 checkpoint writing                             : off
  
 output         length unit                     : A
 output           mass unit                     : amu
 output           time unit                     : ps
 output         charge unit                     : e
 output           spin unit                     : hbar/2
 output         energy unit                     : eV
 output          force unit                     : eV/A
 output       velocity unit                     : A/ps
 output       pressure unit                     : GPa
 output     inv_length unit                     : 1/A
 output      frequency unit                     : cm-1
 output force constant unit                     : eV/A**2
 output         volume unit                     : A**3
 output   IR intensity unit                     : (D/A)**2/amu
 output         dipole unit                     : D
 output         efield unit                     : eV/A/e
 output        entropy unit                     : J/mol/K
  
 wavefunctions paging                           : none
 random number generator seed                   : randomised (1944486)
 data distribution                              : optimal for this architecture
 optimization strategy                          : maximize speed(+++)

 *********************** Exchange-Correlation Parameters ***********************
  
 using functional                               : Perdew Burke Ernzerhof
 relativistic treatment                         : Koelling-Harmon
 DFT+D: Semi-empirical dispersion correction    : off

 ************************* Pseudopotential Parameters **************************
  
 pseudopotential representation                 : reciprocal space
 <beta|phi> representation                      : reciprocal space
 spin-orbit coupling                            : off

 **************************** Basis Set Parameters *****************************
  
 plane wave basis set cut-off                   :   650.0000   eV
 size of standard grid                          :     1.7500
 size of   fine   gmax                          :    22.8577   1/A
 finite basis set correction                    : none

 **************************** Electronic Parameters ****************************
  
 number of  electrons                           :  73.00    
 net charge of system                           :  0.000    
 treating system as non-spin-polarized
 number of bands                                :         52

 ********************* Electronic Minimization Parameters **********************
  
 Method: Treating system as metallic with density mixing treatment of electrons,
         and number of  SD  steps               :          1
         and number of  CG  steps               :          4
  
 total energy / atom convergence tol.           : 0.1000E-08   eV
 eigen-energy convergence tolerance             : 0.1731E-09   eV
 max force / atom convergence tol.              : ignored
 convergence tolerance window                   :          3   cycles
 max. number of SCF cycles                      :        100
 number of fixed-spin iterations                :         10
 smearing scheme                                : Gaussian
 smearing width                                 : 0.2000       eV
 Fermi energy convergence tolerance             : 0.2721E-13   eV
 periodic dipole correction                     : NONE

 ************************** Density Mixing Parameters **************************
  
 density-mixing scheme                          : Broyden
 max. length of mixing history                  :         20
 charge density mixing amplitude                : 0.8000    
 cut-off energy for mixing                      :  650.0       eV

 *********************** Population Analysis Parameters ************************
  
 Population analysis with cutoff                :  3.000       A

 ********************** Geometry Optimization Parameters ***********************
  
 optimization method                            : LBFGS
 max. no. of LBFGS updates                      : unbounded
 variable cell method                           : fixed basis quality
 max. number of steps                           :          2
 estimated bulk modulus                         :  500.0       GPa
 estimated <frequency>                          :  1668.       cm-1
 geom line minimiser                            : on
 with line minimiser tolerance                  :     0.4000
 total energy convergence tolerance             : 0.2000E-04   eV/atom
        max ionic |force| tolerance             : 0.1000E-01   eV/A
 max ionic |displacement| tolerance             : 0.1000E-02   A
   max |stress component| tolerance             : 0.1000       GPa
 convergence tolerance window                   :          2   steps
 backup results every                           : 2147483647   steps
 write geom trajectory file                     : on

 *******************************************************************************
  
 
                           -------------------------------
                                      Unit Cell
                           -------------------------------
        Real Lattice(A)                      Reciprocal Lattice(1/A)
  10.2290145   0.0000000   0.0000733        0.6142507   0.0000000   0.0822827
   0.0000000   5.1558983   0.0000000        0.0000000   1.2186403   0.0000000
  -1.3467288   0.0000000  10.0535052       -0.0000045   0.0000000   0.6249740
 
                       Lattice parameters(A)       Cell Angles
                    a =   10.229014          alpha =   90.000000
                    b =    5.155898          beta  =   97.629291
                    c =   10.143305          gamma =   90.000000
 
                       Current cell volume =  530.219942       A**3
                                   density =    0.633012   AMU/A**3
                                           =    1.051141     g/cm^3
 
                           -------------------------------
                                     Cell Contents
                           -------------------------------
                         Total number of ions in cell =    9
                      Total number of species in cell =    2
                        Max number of any one species =    7
 
            xxxxxxxxxxxxxxxxxxxxxxxxxxxxxxxxxxxxxxxxxxxxxxxxxxxxxxxxxxxx
            x  Element    Atom        Fractional coordinates of atoms  x
            x            Number           u          v          w      x
            x----------------------------------------------------------x
            x  P            1         0.037951   0.000000   0.726156   x 
            x  P            2         0.882447   0.000000   0.856646   x 
            x  K            1         0.038404   0.000000   0.410046   x 
            x  K            2         0.170924   0.000000   0.031408   x 
            x  K            3         0.229009   0.500000   0.723593   x 
            x  K            4         0.468445   0.500000   0.323149   x 
            x  K            5         0.569246   0.000000   0.751389   x 
            x  K            6         0.823560   0.500000   0.039797   x 
            x  K            7         0.849904   0.500000   0.653967   x 
            xxxxxxxxxxxxxxxxxxxxxxxxxxxxxxxxxxxxxxxxxxxxxxxxxxxxxxxxxxxx
 
 
                         No user defined ionic velocities
 
                           -------------------------------
                                   Details of Species
                           -------------------------------
 
                               Mass of species in AMU
                                    P   30.9737600
                                    K   39.0983000
 
                          Electric Quadrupole Moment (Barn)
                                    P    1.0000000 No Isotope Defined
                                    K    0.0585000 Isotope 39
 
                          Files used for pseudopotentials:
                                    P P_OTF.usp
                                    K K_OTF.usp
 
                           -------------------------------
                              k-Points For BZ Sampling
                           -------------------------------
                       MP grid size for SCF calculation is  4  7  4
                            with an offset of   0.000  0.000  0.000
                       Number of kpoints used =            32
 
                           -------------------------------
                               Symmetry and Constraints
                           -------------------------------
 
                      Maximum deviation from symmetry = 0.188002E-14     ANG
 
                      Number of symmetry operations   =           2
                      Number of ionic constraints     =           3
                      Point group of crystal =     3: Cs, m, m
                      Space group of crystal =     6: Pm, P -2y
 
             Set iprint > 1 for details on symmetry rotations/translations
 
                         Centre of mass is constrained
             Set iprint > 1 for details of linear ionic constraints
 
                         Number of cell constraints= 2
                         Cell constraints are:  1 2 3 0 5 0
 
                         External pressure/stress (GPa)
                          0.00000   0.00000   0.00000
                                    0.00000   0.00000
                                              0.00000
  
+---------------- MEMORY AND SCRATCH DISK ESTIMATES PER PROCESS --------------+
|                                                     Memory          Disk    |
| Baseline code, static data and system overhead      446.0 MB         0.0 MB |
| BLAS internal memory storage                          0.0 MB         0.0 MB |
| Model and support data                              180.6 MB         0.0 MB |
| Electronic energy minimisation requirements          53.5 MB         0.0 MB |
| Force calculation requirements                       11.2 MB         0.0 MB |
| Stress calculation requirements                      12.4 MB         0.0 MB |
|                                               ----------------------------- |
| Approx. total storage required per process          680.1 MB         0.0 MB |
|                                                                             |
| Requirements will fluctuate during execution and may exceed these estimates |
+-----------------------------------------------------------------------------+
Calculating total energy with cut-off of  650.000 eV.
------------------------------------------------------------------------ <-- SCF
SCF loop      Energy           Fermi           Energy gain       Timer   <-- SCF
                               energy          per atom          (sec)   <-- SCF
------------------------------------------------------------------------ <-- SCF
Initial  -5.29037226E+003  0.00000000E+000                         2.79  <-- SCF
      1  -5.71015406E+003  3.27527280E+000   4.66424213E+001       5.02  <-- SCF
      2  -5.97571732E+003  2.01954488E+000   2.95070293E+001       6.50  <-- SCF
      3  -5.98545857E+003  1.68163720E+000   1.08236108E+000       8.27  <-- SCF
      4  -5.98076656E+003  1.77537193E+000  -5.21334689E-001      10.90  <-- SCF
      5  -5.98059416E+003  1.70579762E+000  -1.91549326E-002      13.43  <-- SCF
      6  -5.98053105E+003  1.80384030E+000  -7.01272813E-003      16.04  <-- SCF
      7  -5.98050868E+003  1.74894062E+000  -2.48583034E-003      18.87  <-- SCF
      8  -5.98050826E+003  1.75130622E+000  -4.60676143E-005      21.37  <-- SCF
      9  -5.98050862E+003  1.75403925E+000   3.95626412E-005      23.96  <-- SCF
     10  -5.98050870E+003  1.75575964E+000   9.62192612E-006      26.53  <-- SCF
     11  -5.98050871E+003  1.75568971E+000   1.28781045E-006      29.49  <-- SCF
     12  -5.98050872E+003  1.75578187E+000   2.97801320E-007      31.96  <-- SCF
     13  -5.98050872E+003  1.75586605E+000   1.61763364E-007      34.25  <-- SCF
     14  -5.98050872E+003  1.75589359E+000   2.79509777E-008      36.41  <-- SCF
     15  -5.98050872E+003  1.75589645E+000   2.48912588E-009      38.39  <-- SCF
     16  -5.98050872E+003  1.75589962E+000   7.14444265E-010      40.07  <-- SCF
     17  -5.98050872E+003  1.75590182E+000   1.31906657E-010      41.66  <-- SCF
------------------------------------------------------------------------ <-- SCF
 
Final energy, E             =  -5980.360540845     eV
Final free energy (E-TS)    =  -5980.508719140     eV
(energies not corrected for finite basis set)
 
NB est. 0K energy (E-0.5TS)      =  -5980.434629992     eV
 

WARNING - doing cell minimisation without finite basis correction:
        => now searching for a stationary and not minimum energy
 
+---------------- MEMORY AND SCRATCH DISK ESTIMATES PER PROCESS --------------+
|                                                     Memory          Disk    |
| Model and support data                              188.1 MB         0.0 MB |
| Electronic energy minimisation requirements          53.5 MB         0.0 MB |
| Geometry minimisation requirements                   60.1 MB         0.0 MB |
|                                               ----------------------------- |
| Approx. total storage required per process          301.7 MB         0.0 MB |
|                                                                             |
| Requirements will fluctuate during execution and may exceed these estimates |
+-----------------------------------------------------------------------------+
 
 
 ************************** Constrained Symmetrised Forces **************************
 *                                                                                  *
 *                           Cartesian components (eV/A)                            *
 * -------------------------------------------------------------------------------- *
 *                         x                    y                    z              *
 *                                                                                  *
 * P               1     -0.02315             -0.00000              0.02799         *
 * P               2      0.03680             -0.00000             -0.00798         *
 * K               1      0.00783              0.00000             -0.01130         *
 * K               2      0.00156              0.00000             -0.02419         *
 * K               3      0.00391             -0.00000             -0.02323         *
 * K               4     -0.00445              0.00000             -0.00172         *
 * K               5     -0.00899             -0.00000              0.03965         *
 * K               6      0.00446              0.00000              0.01206         *
 * K               7     -0.01796              0.00000             -0.01127         *
 *                                                                                  *
 ************************************************************************************
 
 *********** Symmetrised Stress Tensor ***********
 *                                               *
 *          Cartesian components (GPa)           *
 * --------------------------------------------- *
 *             x             y             z     *
 *                                               *
 *  x     -0.013017      0.000000     -0.005041  *
 *  y      0.000000     -0.020815      0.000000  *
 *  z     -0.005041      0.000000      0.000556  *
 *                                               *
 *  Pressure:    0.0111                          *
 *                                               *
 *************************************************
 LBFGS: finished iteration     0 with enthalpy= -5.98050872E+003 eV
  
 +-----------+-----------------+-----------------+------------+-----+ <-- LBFGS
 | Parameter |      value      |    tolerance    |    units   | OK? | <-- LBFGS
 +-----------+-----------------+-----------------+------------+-----+ <-- LBFGS
 |  dE/ion   |   0.000000E+000 |   2.000000E-005 |         eV | No  | <-- LBFGS
 |  |F|max   |   4.065135E-002 |   1.000000E-002 |       eV/A | No  | <-- LBFGS
 |  |dR|max  |   0.000000E+000 |   1.000000E-003 |          A | No  | <-- LBFGS
 |   Smax    |   2.081546E-002 |   1.000000E-001 |        GPa | Yes | <-- LBFGS
 +-----------+-----------------+-----------------+------------+-----+ <-- LBFGS
  

================================================================================
 Starting LBFGS iteration          1 ...
================================================================================
  
 +------------+-------------+-------------+-----------------+ <-- min LBFGS
 |    Step    |   lambda    |   F.delta'  |    enthalpy     | <-- min LBFGS
 +------------+-------------+-------------+-----------------+ <-- min LBFGS
 |  previous  |    0.000000 |    0.025160 |    -5980.508719 | <-- min LBFGS
 +------------+-------------+-------------+-----------------+ <-- min LBFGS
  

--------------------------------------------------------------------------------
 LBFGS: starting iteration         1 with trial guess (lambda=  1.000000)
--------------------------------------------------------------------------------
 
+---------------- MEMORY AND SCRATCH DISK ESTIMATES PER PROCESS --------------+
|                                                     Memory          Disk    |
| Model and support data                              188.1 MB         0.0 MB |
| Electronic energy minimisation requirements          53.5 MB         0.0 MB |
| Geometry minimisation requirements                   60.1 MB         0.0 MB |
|                                               ----------------------------- |
| Approx. total storage required per process          301.7 MB         0.0 MB |
|                                                                             |
| Requirements will fluctuate during execution and may exceed these estimates |
+-----------------------------------------------------------------------------+
 
 
                           -------------------------------
                                      Unit Cell
                           -------------------------------
        Real Lattice(A)              Reciprocal Lattice(1/A)
  10.2291032   0.0000000   0.0001077        0.6142451   0.0000000   0.0822806
   0.0000000   5.1559698   0.0000000        0.0000000   1.2186234   0.0000000
  -1.3467067   0.0000000  10.0534969       -0.0000066   0.0000000   0.6249742
 
                       Lattice parameters(A)       Cell Angles
                    a =   10.229103          alpha =   90.000000
                    b =    5.155970          beta  =   97.628981
                    c =   10.143294          gamma =   90.000000
 
                Current cell volume =  530.231705 A**3
 
                           -------------------------------
                                     Cell Contents
                           -------------------------------
 
            xxxxxxxxxxxxxxxxxxxxxxxxxxxxxxxxxxxxxxxxxxxxxxxxxxxxxxxxxxxxxxxxx
            x  Element         Atom        Fractional coordinates of atoms  x
            x                 Number           u          v          w      x
            x---------------------------------------------------------------x
            x  P                 1         0.037946   0.000000   0.726163   x
            x  P                 2         0.882456   0.000000   0.856644   x
            x  K                 1         0.038406   0.000000   0.410043   x
            x  K                 2         0.170924   0.000000   0.031402   x
            x  K                 3         0.229009   0.500000   0.723587   x
            x  K                 4         0.468444   0.500000   0.323149   x
            x  K                 5         0.569245   0.000000   0.751399   x
            x  K                 6         0.823562   0.500000   0.039800   x
            x  K                 7         0.849899   0.500000   0.653964   x
            xxxxxxxxxxxxxxxxxxxxxxxxxxxxxxxxxxxxxxxxxxxxxxxxxxxxxxxxxxxxxxxxx
 
 
------------------------------------------------------------------------ <-- SCF
SCF loop      Energy           Fermi           Energy gain       Timer   <-- SCF
                               energy          per atom          (sec)   <-- SCF
------------------------------------------------------------------------ <-- SCF
Initial  -5.98036054E+003  0.00000000E+000                        49.88  <-- SCF
      1  -5.98050876E+003  1.75589208E+000   1.64688563E-002      51.57  <-- SCF
      2  -5.98050876E+003  1.75589207E+000   2.96728622E-007      54.25  <-- SCF
      3  -5.98050874E+003  1.75590449E+000  -2.27276227E-006      56.59  <-- SCF
      4  -5.98050874E+003  1.75584339E+000  -7.79515065E-008      58.92  <-- SCF
      5  -5.98050874E+003  1.75590790E+000   3.80535667E-009      61.41  <-- SCF
      6  -5.98050874E+003  1.75585129E+000  -1.49110379E-009      63.27  <-- SCF
      7  -5.98050874E+003  1.75586822E+000  -2.67508419E-010      64.82  <-- SCF
      8  -5.98050874E+003  1.75586893E+000   1.26149168E-010      66.36  <-- SCF
------------------------------------------------------------------------ <-- SCF
 
Final energy, E             =  -5980.360554594     eV
Final free energy (E-TS)    =  -5980.508737294     eV
(energies not corrected for finite basis set)
 
NB est. 0K energy (E-0.5TS)      =  -5980.434645944     eV
 
 
 ************************** Constrained Symmetrised Forces **************************
 *                                                                                  *
 *                           Cartesian components (eV/A)                            *
 * -------------------------------------------------------------------------------- *
 *                         x                    y                    z              *
 *                                                                                  *
 * P               1     -0.02195              0.00000              0.02690         *
 * P               2      0.03545              0.00000             -0.00710         *
 * K               1      0.00789              0.00000             -0.01120         *
 * K               2      0.00166              0.00000             -0.02403         *
 * K               3      0.00389              0.00000             -0.02343         *
 * K               4     -0.00443              0.00000             -0.00164         *
 * K               5     -0.00893              0.00000              0.03974         *
 * K               6      0.00440              0.00000              0.01206         *
 * K               7     -0.01798              0.00000             -0.01129         *
 *                                                                                  *
 ************************************************************************************
 
 *********** Symmetrised Stress Tensor ***********
 *                                               *
 *          Cartesian components (GPa)           *
 * --------------------------------------------- *
 *             x             y             z     *
 *                                               *
 *  x     -0.013578      0.000000     -0.004626  *
 *  y      0.000000     -0.020457      0.000000  *
 *  z     -0.004626      0.000000      0.000214  *
 *                                               *
 *  Pressure:    0.0113                          *
 *                                               *
 *************************************************
  
 +------------+-------------+-------------+-----------------+ <-- min LBFGS
 |    Step    |   lambda    |   F.delta'  |    enthalpy     | <-- min LBFGS
 +------------+-------------+-------------+-----------------+ <-- min LBFGS
 |  previous  |    0.000000 |    0.025160 |    -5980.508719 | <-- min LBFGS
[...]
 estimated <frequency>                          :  1668.       cm-1
 geom line minimiser                            : on
 with line minimiser tolerance                  :     0.4000
 total energy convergence tolerance             : 0.2000E-04   eV/atom
        max ionic |force| tolerance             : 0.1000E-01   eV/A
 max ionic |displacement| tolerance             : 0.1000E-02   A
   max |stress component| tolerance             : 0.1000       GPa
 convergence tolerance window                   :          2   steps
 backup results every                           : 2147483647   steps
 write geom trajectory file                     : on

 *******************************************************************************
  
 
                           -------------------------------
                                      Unit Cell
                           -------------------------------
        Real Lattice(A)                      Reciprocal Lattice(1/A)
  10.2278453   0.0000000   0.2907246        0.6124912   0.0000000   0.0643923
   0.0000000   5.0248371   0.0000000        0.0000000   1.2504257   0.0000000
  -1.0651021   0.0000000  10.1311147       -0.0175762   0.0000000   0.6183392
 
                       Lattice parameters(A)       Cell Angles
                    a =   10.231976          alpha =   90.000000
                    b =    5.024837          beta  =   94.373377
                    c =   10.186949          gamma =   90.000000
 
                       Current cell volume =  522.226927       A**3
                                   density =    0.642701   AMU/A**3
                                           =    1.067230     g/cm^3
 
                           -------------------------------
                                     Cell Contents
                           -------------------------------
                         Total number of ions in cell =    9
                      Total number of species in cell =    2
                        Max number of any one species =    7
 
            xxxxxxxxxxxxxxxxxxxxxxxxxxxxxxxxxxxxxxxxxxxxxxxxxxxxxxxxxxxx
            x  Element    Atom        Fractional coordinates of atoms  x
            x            Number           u          v          w      x
            x----------------------------------------------------------x
            x  P            1         0.031887   0.000000   0.714090   x 
            x  P            2         0.885521   0.000000   0.858975   x 
            x  K            1         0.031510   0.000000   0.397612   x 
            x  K            2         0.176251   0.000000   0.007231   x 
            x  K            3         0.228207   0.500000   0.683417   x 
            x  K            4         0.468490   0.500000   0.299515   x 
            x  K            5         0.568835   0.000000   0.846246   x 
            x  K            6         0.849389   0.500000   0.055473   x 
            x  K            7         0.829799   0.500000   0.653590   x 
            xxxxxxxxxxxxxxxxxxxxxxxxxxxxxxxxxxxxxxxxxxxxxxxxxxxxxxxxxxxx
 
 
                         No user defined ionic velocities
 
                           -------------------------------
                                   Details of Species
                           -------------------------------
 
                               Mass of species in AMU
                                    P   30.9737600
                                    K   39.0983000
 
                          Electric Quadrupole Moment (Barn)
                                    P    1.0000000 No Isotope Defined
                                    K    0.0585000 Isotope 39
 
                          Files used for pseudopotentials:
                                    P P_OTF.usp
                                    K K_OTF.usp
 
                           -------------------------------
                              k-Points For BZ Sampling
                           -------------------------------
                       MP grid size for SCF calculation is  4  7  4
                            with an offset of   0.000  0.000  0.000
                       Number of kpoints used =            32
 
                           -------------------------------
                               Symmetry and Constraints
                           -------------------------------
 
                      Maximum deviation from symmetry = 0.188002E-14     ANG
 
                      Number of symmetry operations   =           2
                      Number of ionic constraints     =           3
                      Point group of crystal =     3: Cs, m, m
                      Space group of crystal =     6: Pm, P -2y
 
             Set iprint > 1 for details on symmetry rotations/translations
 
                         Centre of mass is constrained
             Set iprint > 1 for details of linear ionic constraints
 
                         Number of cell constraints= 2
                         Cell constraints are:  1 2 3 0 5 0
 
                         External pressure/stress (GPa)
                          0.00000   0.00000   0.00000
                                    0.00000   0.00000
                                              0.00000
  
+---------------- MEMORY AND SCRATCH DISK ESTIMATES PER PROCESS --------------+
|                                                     Memory          Disk    |
| Baseline code, static data and system overhead      446.0 MB         0.0 MB |
| BLAS internal memory storage                          0.0 MB         0.0 MB |
| Model and support data                              180.4 MB         0.0 MB |
| Electronic energy minimisation requirements          52.9 MB         0.0 MB |
| Force calculation requirements                       11.2 MB         0.0 MB |
| Stress calculation requirements                      12.4 MB         0.0 MB |
|                                               ----------------------------- |
| Approx. total storage required per process          679.2 MB         0.0 MB |
|                                                                             |
| Requirements will fluctuate during execution and may exceed these estimates |
+-----------------------------------------------------------------------------+
Calculating total energy with cut-off of  650.000 eV.
------------------------------------------------------------------------ <-- SCF
SCF loop      Energy           Fermi           Energy gain       Timer   <-- SCF
                               energy          per atom          (sec)   <-- SCF
------------------------------------------------------------------------ <-- SCF
Initial  -5.29150189E+003  0.00000000E+000                         2.73  <-- SCF
      1  -5.71431671E+003  3.35252074E+000   4.69794240E+001       4.96  <-- SCF
      2  -5.97589440E+003  2.07671622E+000   2.90641875E+001       6.41  <-- SCF
      3  -5.98543844E+003  1.76077159E+000   1.06044967E+000       8.19  <-- SCF
      4  -5.98078586E+003  1.86662755E+000  -5.16954099E-001      10.83  <-- SCF
      5  -5.98065148E+003  1.76623052E+000  -1.49311780E-002      13.41  <-- SCF
      6  -5.98056372E+003  1.84706117E+000  -9.75023204E-003      15.99  <-- SCF
      7  -5.98054994E+003  1.81739133E+000  -1.53091778E-003      18.70  <-- SCF
      8  -5.98055015E+003  1.81638946E+000   2.26376875E-005      21.32  <-- SCF
      9  -5.98055065E+003  1.81798504E+000   5.53934471E-005      23.98  <-- SCF
     10  -5.98055076E+003  1.81896950E+000   1.21370398E-005      26.53  <-- SCF
     11  -5.98055077E+003  1.81906169E+000   1.08719735E-006      29.58  <-- SCF
     12  -5.98055077E+003  1.81915799E+000   1.50121978E-007      31.98  <-- SCF
     13  -5.98055077E+003  1.81919682E+000   5.75937978E-009      34.25  <-- SCF
     14  -5.98055077E+003  1.81919489E+000   3.40001224E-009      36.46  <-- SCF
     15  -5.98055077E+003  1.81920336E+000   4.75981090E-010      38.24  <-- SCF
     16  -5.98055077E+003  1.81920580E+000   1.91286136E-010      39.86  <-- SCF
------------------------------------------------------------------------ <-- SCF
 
Final energy, E             =  -5980.405971050     eV
Final free energy (E-TS)    =  -5980.550767734     eV
(energies not corrected for finite basis set)
 
NB est. 0K energy (E-0.5TS)      =  -5980.478369392     eV
 

WARNING - doing cell minimisation without finite basis correction:
        => now searching for a stationary and not minimum energy
 
+---------------- MEMORY AND SCRATCH DISK ESTIMATES PER PROCESS --------------+
|                                                     Memory          Disk    |
| Model and support data                              187.8 MB         0.0 MB |
| Electronic energy minimisation requirements          52.9 MB         0.0 MB |
| Geometry minimisation requirements                   59.4 MB         0.0 MB |
|                                               ----------------------------- |
| Approx. total storage required per process          300.1 MB         0.0 MB |
|                                                                             |
| Requirements will fluctuate during execution and may exceed these estimates |
+-----------------------------------------------------------------------------+
 
 
 ************************** Constrained Symmetrised Forces **************************
 *                                                                                  *
 *                           Cartesian components (eV/A)                            *
 * -------------------------------------------------------------------------------- *
 *                         x                    y                    z              *
 *                                                                                  *
 * P               1     -0.00279              0.00000              0.00027         *
 * P               2      0.00025             -0.00000             -0.00678         *
 * K               1     -0.00382             -0.00000             -0.00246         *
 * K               2      0.00567              0.00000             -0.00253         *
 * K               3      0.00224              0.00000             -0.00265         *
 * K               4      0.00327             -0.00000              0.00051         *
 * K               5     -0.00024             -0.00000              0.00655         *
 * K               6     -0.00040             -0.00000              0.00466         *
 * K               7     -0.00417              0.00000              0.00243         *
 *                                                                                  *
 ************************************************************************************
 
 *********** Symmetrised Stress Tensor ***********
 *                                               *
 *          Cartesian components (GPa)           *
 * --------------------------------------------- *
 *             x             y             z     *
 *                                               *
 *  x     -0.013931      0.000000     -0.006568  *
 *  y      0.000000     -0.028271      0.000000  *
 *  z     -0.006568      0.000000     -0.011844  *
 *                                               *
 *  Pressure:    0.0180                          *
 *                                               *
 *************************************************
 LBFGS: finished iteration     0 with enthalpy= -5.98055077E+003 eV
  
 +-----------+-----------------+-----------------+------------+-----+ <-- LBFGS
 | Parameter |      value      |    tolerance    |    units   | OK? | <-- LBFGS
 +-----------+-----------------+-----------------+------------+-----+ <-- LBFGS
 |  dE/ion   |   0.000000E+000 |   2.000000E-005 |         eV | Yes | <-- LBFGS
 |  |F|max   |   6.780147E-003 |   1.000000E-002 |       eV/A | Yes | <-- LBFGS
 |  |dR|max  |   0.000000E+000 |   1.000000E-003 |          A | Yes | <-- LBFGS
 |   Smax    |   2.827128E-002 |   1.000000E-001 |        GPa | Yes | <-- LBFGS
 +-----------+-----------------+-----------------+------------+-----+ <-- LBFGS
  
 LBFGS: Geometry optimization completed successfully.

================================================================================
 LBFGS: Final Configuration:
================================================================================
 
                           -------------------------------
                                      Unit Cell
                           -------------------------------
        Real Lattice(A)              Reciprocal Lattice(1/A)
  10.2278453   0.0000000   0.2907246        0.6124912   0.0000000   0.0643923
   0.0000000   5.0248371   0.0000000        0.0000000   1.2504257   0.0000000
  -1.0651021   0.0000000  10.1311147       -0.0175762   0.0000000   0.6183392
 
                       Lattice parameters(A)       Cell Angles
                    a =   10.231976          alpha =   90.000000
                    b =    5.024837          beta  =   94.373377
                    c =   10.186949          gamma =   90.000000
 
                Current cell volume =  522.226927 A**3
 
                           -------------------------------
                                     Cell Contents
                           -------------------------------
 
            xxxxxxxxxxxxxxxxxxxxxxxxxxxxxxxxxxxxxxxxxxxxxxxxxxxxxxxxxxxxxxxxx
            x  Element         Atom        Fractional coordinates of atoms  x
            x                 Number           u          v          w      x
            x---------------------------------------------------------------x
            x  P                 1         0.031887   0.000000   0.714090   x
            x  P                 2         0.885521   0.000000   0.858975   x
            x  K                 1         0.031510   0.000000   0.397612   x
            x  K                 2         0.176251   0.000000   0.007231   x
            x  K                 3         0.228207   0.500000   0.683417   x
            x  K                 4         0.468490   0.500000   0.299515   x
            x  K                 5         0.568835   0.000000   0.846246   x
            x  K                 6         0.849389   0.500000   0.055473   x
            x  K                 7         0.829799   0.500000   0.653590   x
            xxxxxxxxxxxxxxxxxxxxxxxxxxxxxxxxxxxxxxxxxxxxxxxxxxxxxxxxxxxxxxxxx
 
 
 LBFGS: Final Enthalpy     = -5.98055077E+003 eV
 LBFGS: Final <frequency>  unchanged from initial value
 LBFGS: Final bulk modulus unchanged from initial value
  
  **********************************************************
  *** There were at least     1 warnings during this run ***
  *** => please check the whole of this file carefully!  ***
  **********************************************************
 
 ******************* Unconstrained Forces *******************
 *                                                          *
 *               Cartesian components (eV/A)                *
 * -------------------------------------------------------- *
 *                         x            y            z      *
 *                                                          *
 * P               1     -0.00279      0.00000      0.00027 *
 * P               2      0.00025     -0.00000     -0.00678 *
 * K               1     -0.00382     -0.00000     -0.00246 *
 * K               2      0.00567      0.00000     -0.00253 *
 * K               3      0.00224      0.00000     -0.00265 *
 * K               4      0.00327     -0.00000      0.00051 *
 * K               5     -0.00024     -0.00000      0.00655 *
 * K               6     -0.00040     -0.00000      0.00466 *
 * K               7     -0.00417      0.00000      0.00243 *
 *                                                          *
 ************************************************************
 
 ************************** Constrained Symmetrised Forces **************************
 *                                                                                  *
 *                           Cartesian components (eV/A)                            *
 * -------------------------------------------------------------------------------- *
 *                         x                    y                    z              *
 *                                                                                  *
 * P               1     -0.00279              0.00000              0.00027         *
 * P               2      0.00025             -0.00000             -0.00678         *
 * K               1     -0.00382             -0.00000             -0.00246         *
 * K               2      0.00567              0.00000             -0.00253         *
 * K               3      0.00224              0.00000             -0.00265         *
 * K               4      0.00327             -0.00000              0.00051         *
 * K               5     -0.00024             -0.00000              0.00655         *
 * K               6     -0.00040             -0.00000              0.00466         *
 * K               7     -0.00417              0.00000              0.00243         *
 *                                                                                  *
 ************************************************************************************
 
 *********** Symmetrised Stress Tensor ***********
 *                                               *
 *          Cartesian components (GPa)           *
 * --------------------------------------------- *
 *             x             y             z     *
 *                                               *
 *  x     -0.013931      0.000000     -0.006568  *
 *  y      0.000000     -0.028271      0.000000  *
 *  z     -0.006568      0.000000     -0.011844  *
 *                                               *
 *  Pressure:    0.0180                          *
 *                                               *
 *************************************************
 
 Pseudo atomic calculation performed for P 3s2 3p3
 
 Converged in 26 iterations to a total energy of -214.2223 eV
 
 
 Pseudo atomic calculation performed for K 3s2 3p6 4s1
 
 Converged in 32 iterations to a total energy of -790.3776 eV
 
Charge spilling parameter for spin component 1 = 0.47%
 
     Atomic Populations (Mulliken)
     -----------------------------
Species          Ion     s      p      d      f     Total  Charge (e)
=====================================================================
  P               1     1.81   4.01   0.00   0.00   5.81    -0.81
  P               2     1.81   4.01   0.00   0.00   5.81    -0.81
  K               1     2.44   6.44   0.00   0.00   8.88     0.12
  K               2     2.24   6.44   0.00   0.00   8.68     0.32
  K               3     2.33   6.43   0.00   0.00   8.75     0.25
  K               4     2.49   6.40   0.00   0.00   8.89     0.11
  K               5     2.44   6.44   0.00   0.00   8.87     0.13
  K               6     2.32   6.41   0.00   0.00   8.73     0.27
  K               7     2.14   6.41   0.00   0.00   8.56     0.44
=====================================================================
 
                 Bond                   Population      Length (A)
======================================================================
               P 1 -- P 2                    0.61        2.18136
======================================================================
 
Initialisation time =      1.02 s
Calculation time    =     47.44 s
Finalisation time   =      0.11 s
Total time          =     48.57 s
Peak Memory Use     = 890504 kB
  
Overall parallel efficiency rating: Satisfactory (66%)                          
  
Data was distributed by:-
G-vector (3-way); efficiency rating: Satisfactory (69%)                         
k-point (32-way); efficiency rating: Excellent (93%)                            
  
Parallel notes:
1) Calculation only took 48.5 s, so efficiency estimates may be inaccurate.     
