 +-------------------------------------------------+
 |                                                 |
 |      CCC   AA    SSS  TTTTT  EEEEE  PPPP        |
 |     C     A  A  S       T    E      P   P       |
 |     C     AAAA   SS     T    EEE    PPPP        |
 |     C     A  A     S    T    E      P           |
 |      CCC  A  A  SSS     T    EEEEE  P           |
 |                                                 |
 +-------------------------------------------------+
 |                                                 |
 | Welcome to Academic Release CASTEP version 20.1 |          
 | Ab Initio Total Energy Program                  |
 |                                                 |
 | Authors:                                        |
 | M. Segall, M. Probert, C. Pickard, P. Hasnip,   |
 | S. Clark, K. Refson, J. R. Yates, M. Payne      |
 |                                                 |
 | Contributors:                                   |
 | P. Lindan, P. Haynes, J. White, V. Milman,      |
 | N. Govind, M. Gibson, P. Tulip, V. Cocula,      |
 | B. Montanari, D. Quigley, M. Glover,            |
 | L. Bernasconi, A. Perlov, M. Plummer,           |
 | E. McNellis, J. Meyer, J. Gale, D. Jochym       |
 | J. Aarons, B. Walker, R. Gillen, D. Jones       |
 | T. Green, I. J. Bush, C. J. Armstrong,          |
 | E. J. Higgins, E. L. Brown, M. S. McFly,        |
 | J. Wilkins, B-C. Shih, P. J. P. Byrne,          |
 | R. J. Maurer, J. C. Womack, A. Bartok-Partay    |
 |                                                 |
 | Copyright (c) 2000 - 2019                       |
 |                                                 |
 |     Distributed under the terms of an           |
 |     Agreement between the United Kingdom        |
 |     Car-Parrinello (UKCP) Consortium,           |
 |     Daresbury Laboratory and Accelrys, Inc.     |
 |                                                 |
 | Please cite                                     |
 |                                                 |
 |     "First principles methods using CASTEP"     |
 |                                                 |
 |         Zeitschrift fuer Kristallographie       |
 |           220(5-6) pp. 567-570 (2005)           |
 |                                                 |
 | S. J. Clark, M. D. Segall, C. J. Pickard,       |
 | P. J. Hasnip, M. J. Probert, K. Refson,         |
 | M. C. Payne                                     |
 |                                                 |
 |       in all publications arising from          |
 |              your use of CASTEP                 |
 |                                                 |
 +-------------------------------------------------+
 |                                                 |
 |              http://www.castep.org              |
 |                                                 |
 +-------------------------------------------------+
 
 
 
 Compiled for linux_x86_64_ifort17 on Fri, 06 Sep 2019 21:05:36 +0100
 from code version Version unavailable
 Compiler: Intel Fortran 17.0.4.196; Optimisation: fast
 MATHLIBS: Intel MKL(2017.0.3) (LAPACK version 3.7.0)
 FFT Lib : mkl
 Fundamental constants values: CODATA 2014
 
 Run started: Tue, 10 Mar 2020 06:09:04 +0000
 Warning - deprecated keyword PHONON_SUM_RULE found in input file
         - preferred usage is PHONON_SUM_RULE_METHOD
 
 Atomic calculation performed for K: 1s2 2s2 2p6 3s2 3p6 4s1
 
 Converged in 52 iterations to an ae energy of -16383.606 eV
 
   ============================================================                
   | Pseudopotential Report - Date of generation 10-03-2020   |                
   ------------------------------------------------------------                
   | Element: K Ionic charge:  9.00 Level of theory: PBE      |                
   | Atomic Solver: Koelling-Harmon                           |                
   |                                                          |                
   |               Reference Electronic Structure             |                
   |         Orbital         Occupation         Energy        |                
   |            3s              2.000           -1.299        |                
   |            3p              6.000           -0.691        |                
   |            4s              1.000           -0.085        |                
   |                                                          |                
   |                 Pseudopotential Definition               |                
   |        Beta     l      e      Rc     scheme   norm       |                
   |          1      0   -1.299   1.500     qc      0         |                
   |          2      0   -0.085   1.500     qc      0         |                
   |          3      0    0.250   1.500     qc      0         |                
   |          4      1   -0.691   1.500     qc      0         |                
   |          5      1    0.250   1.500     qc      0         |                
   |         loc     2    0.000   1.500     pn      0         |                
   |                                                          |                
   | Augmentation charge Rinner = 1.048                       |                
   | Partial core correction Rc = 1.048                       |                
   ------------------------------------------------------------                
   | "2|1.5|9|10|11|30U:40:31(qc=6)"                          |                
   ------------------------------------------------------------                
   |      Author: Chris J. Pickard, Cambridge University      |                
   ============================================================                
 
 Pseudo atomic calculation performed for K 3s2 3p6 4s1
 
 Converged in 39 iterations to a total energy of -790.3776 eV
 Calculation parallelised over 315 processes.
 Data is distributed by G-vector(9-way) and k-point(35-way)

 ************************************ Title ************************************
 

 ***************************** General Parameters ******************************
  
 output verbosity                               : normal  (1)
 write checkpoint data to                       : K-CollCode44670.check
 type of calculation                            : geometry optimization
 stress calculation                             : off
 density difference calculation                 : off
 electron localisation func (ELF) calculation   : off
 Hirshfeld analysis                             : off
 molecular orbital projected DOS                : off
 deltaSCF calculation                           : off
 unlimited duration calculation
 timing information                             : on
 memory usage estimate                          : on
 write extra output files                       : on
 write final potential to formatted file        : off
 write final density to formatted file          : off
 write structure in CELL formatted file         : on
 write BibTeX reference list                    : off
 write OTFG pseudopotential files               : on
 write electrostatic potential file             : on
 write bands file                               : on
 checkpoint writing                             : both castep_bin and check files
  
 output         length unit                     : A
 output           mass unit                     : amu
 output           time unit                     : ps
 output         charge unit                     : e
 output           spin unit                     : hbar/2
 output         energy unit                     : eV
 output          force unit                     : eV/A
 output       velocity unit                     : A/ps
 output       pressure unit                     : GPa
 output     inv_length unit                     : 1/A
 output      frequency unit                     : cm-1
 output force constant unit                     : eV/A**2
 output         volume unit                     : A**3
 output   IR intensity unit                     : (D/A)**2/amu
 output         dipole unit                     : D
 output         efield unit                     : eV/A/e
 output        entropy unit                     : J/mol/K
 output    efield chi2 unit                     : pm/V
  
 wavefunctions paging                           : none
 random number generator seed                   : randomised (60905062)
 data distribution                              : optimal for this architecture
 optimization strategy                          : maximize speed(+++)

 *********************** Exchange-Correlation Parameters ***********************
  
 using functional                               : Perdew Burke Ernzerhof
 relativistic treatment                         : Koelling-Harmon
 DFT+D: Semi-empirical dispersion correction    : off

 ************************* Pseudopotential Parameters **************************
  
 pseudopotential representation                 : reciprocal space
 <beta|phi> representation                      : reciprocal space
 spin-orbit coupling                            : off

 **************************** Basis Set Parameters *****************************
  
 plane wave basis set cut-off                   :   650.0000   eV
 size of standard grid                          :     2.0000
 size of   fine   gmax                          :    26.1231   1/A
 finite basis set correction                    : none

 **************************** Electronic Parameters ****************************
  
 number of  electrons                           :  9.000    
 net charge of system                           :  0.000    
 treating system as non-spin-polarized
 number of bands                                :          9

 ********************* Electronic Minimization Parameters **********************
  
 Method: Treating system as metallic with density mixing treatment of electrons,
         and number of  SD  steps               :          1
         and number of  CG  steps               :          4
  
 total energy / atom convergence tol.           : 0.1000E-10   eV
 eigen-energy convergence tolerance             : 0.1000E-10   eV
 max force / atom convergence tol.              : ignored
 convergence tolerance window                   :          3   cycles
 max. number of SCF cycles                      :        100
 number of fixed-spin iterations                :         10
 smearing scheme                                : Gaussian
 smearing width                                 : 0.2000       eV
 Fermi energy convergence tolerance             : 0.2721E-13   eV
 periodic dipole correction                     : NONE

 ************************** Density Mixing Parameters **************************
  
 density-mixing scheme                          : Broyden
 max. length of mixing history                  :         20
 charge density mixing amplitude                : 0.8000    
 cut-off energy for mixing                      :  650.0       eV

 *********************** Population Analysis Parameters ************************
  
 Population analysis with cutoff                :  3.000       A
 Population analysis output                     : summary and pdos components

 ********************** Geometry Optimization Parameters ***********************
  
 optimization method                            : LBFGS
 max. no. of LBFGS updates                      : unbounded
 variable cell method                           : fixed basis quality
 max. number of steps                           :        150
 estimated bulk modulus                         :  500.0       GPa
 estimated <frequency>                          :  1668.       cm-1
 geom line minimiser                            : on
 with line minimiser tolerance                  :     0.4000
 total energy convergence tolerance             : 0.2000E-04   eV/atom
        max ionic |force| tolerance             : 0.1000E-02   eV/A
 max ionic |displacement| tolerance             : 0.1000E-02   A
   max |stress component| tolerance             : 0.1000       GPa
 convergence tolerance window                   :          2   steps
 backup results every                           :       3400   seconds
 write geom trajectory file                     : on

 *******************************************************************************
  
 
                           -------------------------------
                                      Unit Cell
                           -------------------------------
        Real Lattice(A)                      Reciprocal Lattice(1/A)
    -2.6364791     2.6364791     2.6364791        0.000000000   1.191586413   1.191586413
     2.6364791    -2.6364791     2.6364791        1.191586413   0.000000000   1.191586413
     2.6364791     2.6364791    -2.6364791        1.191586413   1.191586413   0.000000000
 
                       Lattice parameters(A)       Cell Angles
                    a =      4.566516          alpha =  109.471221
                    b =      4.566516          beta  =  109.471221
                    c =      4.566516          gamma =  109.471221
 
                       Current cell volume =            73.304896       A**3
                                   density =             0.533365   AMU/A**3
                                           =             0.885674     g/cm^3
 
                           -------------------------------
                                     Cell Contents
                           -------------------------------
                         Total number of ions in cell =    1
                      Total number of species in cell =    1
                        Max number of any one species =    1
 
            xxxxxxxxxxxxxxxxxxxxxxxxxxxxxxxxxxxxxxxxxxxxxxxxxxxxxxxxxxxx
            x  Element    Atom        Fractional coordinates of atoms  x
            x            Number           u          v          w      x
            x----------------------------------------------------------x
            x  K            1         0.000000   0.000000   0.000000   x 
            xxxxxxxxxxxxxxxxxxxxxxxxxxxxxxxxxxxxxxxxxxxxxxxxxxxxxxxxxxxx
 
 
                         No user defined ionic velocities
 
                           -------------------------------
                                   Details of Species
                           -------------------------------
 
                               Mass of species in AMU
                                    K   39.0983000
 
                          Electric Quadrupole Moment (Barn)
                                    K    0.0585000 Isotope 39
 
                          Files used for pseudopotentials:
                                    K 2|1.5|9|10|11|30U:40:31(qc=6)
 
                           -------------------------------
                              k-Points For BZ Sampling
                           -------------------------------
                       MP grid size for SCF calculation is  9  9  9
                            with an offset of   0.000  0.000  0.000
                       Number of kpoints used =            35
 
                           -------------------------------
                               Symmetry and Constraints
                           -------------------------------
 
                      Maximum deviation from symmetry = 0.470004E-15     ANG
 
                      Number of symmetry operations   =          48
                      Number of ionic constraints     =           3
                      Point group of crystal =    32: Oh, m-3m, 4/m -3 2/m
                      Space group of crystal =   229: Im-3m, -I 4 2 3
 
             Set iprint > 1 for details on symmetry rotations/translations
 
                         Centre of mass is constrained
             Set iprint > 1 for details of linear ionic constraints
 
                         Number of cell constraints= 5
                         Cell constraints are:  1 1 1 0 0 0
 
                         External pressure/stress (GPa)
                          0.00000   0.00000   0.00000
                                    0.00000   0.00000
                                              0.00000
  
+---------------- MEMORY AND SCRATCH DISK ESTIMATES PER PROCESS --------------+
|                                                     Memory          Disk    |
| Baseline code, static data and system overhead      673.0 MB         0.0 MB |
| BLAS internal memory storage                          0.0 MB         0.0 MB |
| Model and support data                               27.0 MB         0.0 MB |
| Electronic energy minimisation requirements           2.1 MB         0.0 MB |
| Force calculation requirements                        1.4 MB         0.0 MB |
|                                               ----------------------------- |
| Approx. total storage required per process          702.1 MB         0.0 MB |
|                                                                             |
| Requirements will fluctuate during execution and may exceed these estimates |
+-----------------------------------------------------------------------------+
Calculating total energy with cut-off of  650.000 eV.
------------------------------------------------------------------------ <-- SCF
SCF loop      Energy           Fermi           Energy gain       Timer   <-- SCF
                               energy          per atom          (sec)   <-- SCF
------------------------------------------------------------------------ <-- SCF
Initial  -7.45770596E+002  0.00000000E+000                         4.94  <-- SCF
      1  -7.74290781E+002  4.73058124E+000   2.85201850E+001       5.00  <-- SCF
      2  -7.90773137E+002  1.85500852E+000   1.64823562E+001       5.04  <-- SCF
      3  -7.91434291E+002  1.65740842E+000   6.61153866E-001       5.09  <-- SCF
      4  -7.91455823E+002  1.62553330E+000   2.15327225E-002       5.16  <-- SCF
      5  -7.91456752E+002  1.60115056E+000   9.28495469E-004       5.23  <-- SCF
      6  -7.91456777E+002  1.60055383E+000   2.46951223E-005       5.29  <-- SCF
      7  -7.91456778E+002  1.60035786E+000   1.71742322E-006       5.36  <-- SCF
      8  -7.91456778E+002  1.60043540E+000   1.66482169E-007       5.42  <-- SCF
      9  -7.91456778E+002  1.60047080E+000   3.03131820E-008       5.48  <-- SCF
     10  -7.91456778E+002  1.60047778E+000  -4.02938330E-010       5.54  <-- SCF
     11  -7.91456778E+002  1.60047722E+000  -1.00927931E-010       5.59  <-- SCF
     12  -7.91456778E+002  1.60047717E+000  -4.50502067E-011       5.64  <-- SCF
     13  -7.91456778E+002  1.60047714E+000   3.86697053E-013       5.71  <-- SCF
     14  -7.91456778E+002  1.60047714E+000   3.57694774E-012       5.75  <-- SCF
------------------------------------------------------------------------ <-- SCF
 
Final energy, E             =  -791.4435132845     eV
Final free energy (E-TS)    =  -791.4567784450     eV
(energies not corrected for finite basis set)
 
NB est. 0K energy (E-0.5TS)      =  -791.4501458648     eV
 

Writing analysis data to K-CollCode44670.castep_bin

Writing model to K-CollCode44670.check

WARNING - doing cell minimisation without finite basis correction:
        => now searching for a stationary and not minimum energy
 
+---------------- MEMORY AND SCRATCH DISK ESTIMATES PER PROCESS --------------+
|                                                     Memory          Disk    |
| Model and support data                               38.1 MB         0.0 MB |
| Electronic energy minimisation requirements           2.1 MB         0.0 MB |
| Geometry minimisation requirements                    2.4 MB         0.0 MB |
|                                               ----------------------------- |
| Approx. total storage required per process           42.6 MB         0.0 MB |
|                                                                             |
| Requirements will fluctuate during execution and may exceed these estimates |
+-----------------------------------------------------------------------------+
 
 
 *********** Symmetrised Stress Tensor ***********
 *                                               *
 *          Cartesian components (GPa)           *
 * --------------------------------------------- *
 *             x             y             z     *
 *                                               *
 *  x     -0.017768      0.000000     -0.000000  *
 *  y      0.000000     -0.017768      0.000000  *
 *  z     -0.000000      0.000000     -0.017768  *
 *                                               *
 *  Pressure:    0.0178                          *
 *                                               *
 *************************************************
 LBFGS: finished iteration     0 with enthalpy= -7.91456778E+002 eV
  
 +-----------+-----------------+-----------------+------------+-----+ <-- LBFGS
 | Parameter |      value      |    tolerance    |    units   | OK? | <-- LBFGS
 +-----------+-----------------+-----------------+------------+-----+ <-- LBFGS
 |  dE/ion   |   0.000000E+000 |   2.000000E-005 |         eV | Yes | <-- LBFGS
 |   Smax    |   1.776778E-002 |   1.000000E-001 |        GPa | Yes | <-- LBFGS
 +-----------+-----------------+-----------------+------------+-----+ <-- LBFGS
  
 LBFGS: Geometry optimization completed successfully.

================================================================================
 LBFGS: Final Configuration:
================================================================================
 
                           -------------------------------
                                      Unit Cell
                           -------------------------------
        Real Lattice(A)              Reciprocal Lattice(1/A)
    -2.6364791     2.6364791     2.6364791       -0.000000000   1.191586413   1.191586413
     2.6364791    -2.6364791     2.6364791        1.191586413  -0.000000000   1.191586413
     2.6364791     2.6364791    -2.6364791        1.191586413   1.191586413  -0.000000000
 
                       Lattice parameters(A)       Cell Angles
                    a =      4.566516          alpha =  109.471221
                    b =      4.566516          beta  =  109.471221
                    c =      4.566516          gamma =  109.471221
 
                Current cell volume =            73.304896 A**3
                            density =             0.533365 amu/A**3
                                    =             0.885674 g/cm^3
 
 LBFGS: Final Enthalpy     = -7.91456778E+002 eV
 LBFGS: Final bulk modulus unchanged from initial value
  
  **********************************************************
  *** There were at least     1 warnings during this run ***
  *** => please check the whole of this file carefully!  ***
  **********************************************************
 
 ******************************** Symmetrised Forces ********************************
 *                                                                                  *
 *                           Cartesian components (eV/A)                            *
 * -------------------------------------------------------------------------------- *
 *                         x                    y                    z              *
 *                                                                                  *
 * K               1      0.00000              0.00000              0.00000         *
 *                                                                                  *
 ************************************************************************************
 
 *********** Symmetrised Stress Tensor ***********
 *                                               *
 *          Cartesian components (GPa)           *
 * --------------------------------------------- *
 *             x             y             z     *
 *                                               *
 *  x     -0.017768      0.000000     -0.000000  *
 *  y      0.000000     -0.017768      0.000000  *
 *  z     -0.000000      0.000000     -0.017768  *
 *                                               *
 *  Pressure:    0.0178                          *
 *                                               *
 *************************************************
 
 Pseudo atomic calculation performed for K 3s2 3p6 4s1
 
 Converged in 39 iterations to a total energy of -790.3776 eV
Charge spilling parameter for spin component 1 = 0.28%
 
            Orbital Populations       
     Ion    Atom   Orbital             Charge
  -------------------------------------------
      K     1      S                    2.001
      K     1      Px                   2.001
      K     1      Py                   2.001
      K     1      Pz                   2.002
      K     1      S                    0.476
      K     1      Px                   0.238
      K     1      Py                   0.216
      K     1      Pz                   0.065
  -------------------------------------------
                           Total:       9.000
  -------------------------------------------
 
     Atomic Populations (Mulliken)
     -----------------------------
Species          Ion     s      p      d      f     Total  Charge (e)
=====================================================================
  K               1     2.48   6.52   0.00   0.00   9.00     0.00
=====================================================================
 
                 Bond                   Population      Length (A)
======================================================================
======================================================================
 

Writing analysis data to K-CollCode44670.castep_bin

Writing model to K-CollCode44670.check
Initialisation time =      4.56 s
Calculation time    =      1.83 s
Finalisation time   =      0.31 s
Total time          =      6.71 s
Peak Memory Use     = 790132 kB
  
Overall parallel efficiency rating: Terrible (24%)                              
  
Data was distributed by:-
G-vector (9-way); efficiency rating: Terrible (32%)                             
k-point (35-way); efficiency rating: Terrible (27%)                             
  
Parallel notes:
1) Calculation only took 6.4 s, so efficiency estimates may be inaccurate.      
 +-------------------------------------------------+
 |                                                 |
 |      CCC   AA    SSS  TTTTT  EEEEE  PPPP        |
 |     C     A  A  S       T    E      P   P       |
 |     C     AAAA   SS     T    EEE    PPPP        |
 |     C     A  A     S    T    E      P           |
 |      CCC  A  A  SSS     T    EEEEE  P           |
 |                                                 |
 +-------------------------------------------------+
 |                                                 |
 | Welcome to Academic Release CASTEP version 20.1 |          
 | Ab Initio Total Energy Program                  |
 |                                                 |
 | Authors:                                        |
 | M. Segall, M. Probert, C. Pickard, P. Hasnip,   |
 | S. Clark, K. Refson, J. R. Yates, M. Payne      |
 |                                                 |
 | Contributors:                                   |
 | P. Lindan, P. Haynes, J. White, V. Milman,      |
 | N. Govind, M. Gibson, P. Tulip, V. Cocula,      |
 | B. Montanari, D. Quigley, M. Glover,            |
 | L. Bernasconi, A. Perlov, M. Plummer,           |
 | E. McNellis, J. Meyer, J. Gale, D. Jochym       |
 | J. Aarons, B. Walker, R. Gillen, D. Jones       |
 | T. Green, I. J. Bush, C. J. Armstrong,          |
 | E. J. Higgins, E. L. Brown, M. S. McFly,        |
 | J. Wilkins, B-C. Shih, P. J. P. Byrne,          |
 | R. J. Maurer, J. C. Womack, A. Bartok-Partay    |
 |                                                 |
 | Copyright (c) 2000 - 2019                       |
 |                                                 |
 |     Distributed under the terms of an           |
 |     Agreement between the United Kingdom        |
 |     Car-Parrinello (UKCP) Consortium,           |
 |     Daresbury Laboratory and Accelrys, Inc.     |
 |                                                 |
 | Please cite                                     |
 |                                                 |
 |     "First principles methods using CASTEP"     |
 |                                                 |
 |         Zeitschrift fuer Kristallographie       |
 |           220(5-6) pp. 567-570 (2005)           |
 |                                                 |
 | S. J. Clark, M. D. Segall, C. J. Pickard,       |
 | P. J. Hasnip, M. J. Probert, K. Refson,         |
 | M. C. Payne                                     |
 |                                                 |
 |       in all publications arising from          |
 |              your use of CASTEP                 |
 |                                                 |
 +-------------------------------------------------+
 |                                                 |
 |              http://www.castep.org              |
 |                                                 |
 +-------------------------------------------------+
 
 
 
 Compiled for linux_x86_64_ifort17 on Fri, 06 Sep 2019 21:05:36 +0100
 from code version Version unavailable
 Compiler: Intel Fortran 17.0.4.196; Optimisation: fast
 MATHLIBS: Intel MKL(2017.0.3) (LAPACK version 3.7.0)
 FFT Lib : mkl
 Fundamental constants values: CODATA 2014
 
 Run started: Tue, 10 Mar 2020 06:09:23 +0000
 Warning - deprecated keyword PHONON_SUM_RULE found in input file
         - preferred usage is PHONON_SUM_RULE_METHOD

 Warning in parameters_validate: current value of 
   ELEC_EIGENVALUE_TOL = 0.100000E-10eV
   is too large to achieve desired level of convergence of response properties.
   This may cause convergence failures and/or inaccuracy of results
   of PHONON calculations - recommend you use a smaller value, e.g. 
   ELEC_EIGENVALUE_TOL = 0.111111E-11eV
 +-------------------------------------------------+
 |                                                 |
 |  D D D D    F F F F F  P P P P     T T T T T    |
 |  D       D  F          P       P       T        |
 |  D       D  F F F F    P P P P         T        |
 |  D       D  F          P               T        |
 |  D D D D    F          P               T        |
 |                                                 |
 +-------------------------------------------------+
 |                                                 |
 | Welcome to Castep Linear Response (DFPT)        |
 |                                                 |
 | Copyright (c) 2006 - 2019                       |
 |                                                 |
 | Please cite the following publications in all   |
 | work arising from your use of CASTEP LR.        |
 |                                                 |
 | K. Refson, S. J. Clark and P. R. Tulip          |
 | Variational density functional perturbation     |
 | theory for dielectrics and lattice dynamics     |
 | Phys. Rev. B 73(15), 155114 (2006)              |
 +-------------------------------------------------+
 
Reading continuation data from model file K-CollCode44670.check
 
 Atomic calculation performed for K: 1s2 2s2 2p6 3s2 3p6 4s1
 
 Converged in 52 iterations to an ae energy of -16383.606 eV
 
   ============================================================                
   | Pseudopotential Report - Date of generation 10-03-2020   |                
   ------------------------------------------------------------                
   | Element: K Ionic charge:  9.00 Level of theory: PBE      |                
   | Atomic Solver: Koelling-Harmon                           |                
   |                                                          |                
   |               Reference Electronic Structure             |                
   |         Orbital         Occupation         Energy        |                
   |            3s              2.000           -1.299        |                
   |            3p              6.000           -0.691        |                
   |            4s              1.000           -0.085        |                
   |                                                          |                
   |                 Pseudopotential Definition               |                
   |        Beta     l      e      Rc     scheme   norm       |                
   |          1      0   -1.299   1.500     qc      0         |                
   |          2      0   -0.085   1.500     qc      0         |                
   |          3      0    0.250   1.500     qc      0         |                
   |          4      1   -0.691   1.500     qc      0         |                
   |          5      1    0.250   1.500     qc      0         |                
   |         loc     2    0.000   1.500     pn      0         |                
   |                                                          |                
   | Augmentation charge Rinner = 1.048                       |                
   | Partial core correction Rc = 1.048                       |                
   ------------------------------------------------------------                
   | "2|1.5|9|10|11|30U:40:31(qc=6)"                          |                
   ------------------------------------------------------------                
   |      Author: Chris J. Pickard, Cambridge University      |                
   ============================================================                
 
 Pseudo atomic calculation performed for K 3s2 3p6 4s1
 
 Converged in 39 iterations to a total energy of -790.3776 eV
Initialising basis set for model.
Reinitialising basis set for current geometry.
Continuing from previous run with ground state wavefunction.
Continuing from previous run with ground state density.
 Info: PHONON_SUM_RULE modified from F to T
 Warning - deprecated keyword PHONON_SUM_RULE modified in input file
         - preferred usage is PHONON_SUM_RULE_METHOD
 Calculation parallelised over 320 processes.
 Data is distributed by G-vector(64-way) and k-point(5-way)

 ************************************ Title ************************************
 

 ***************************** General Parameters ******************************
  
 output verbosity                               : normal  (1)
 continuing from                                : K-CollCode44670.check
 write checkpoint data to                       : K-CollCode44670.check
 type of calculation                            : phonon calculation
 stress calculation                             : off
 density difference calculation                 : off
 electron localisation func (ELF) calculation   : off
 Hirshfeld analysis                             : off
 molecular orbital projected DOS                : off
 deltaSCF calculation                           : off
 unlimited duration calculation
 timing information                             : on
 memory usage estimate                          : on
 write extra output files                       : on
 write final potential to formatted file        : off
 write final density to formatted file          : off
 write structure in CELL formatted file         : on
 write BibTeX reference list                    : off
 write OTFG pseudopotential files               : on
 write electrostatic potential file             : on
 write bands file                               : on
 checkpoint writing                             : both castep_bin and check files
  
 output         length unit                     : A
 output           mass unit                     : amu
 output           time unit                     : ps
 output         charge unit                     : e
 output           spin unit                     : hbar/2
 output         energy unit                     : eV
 output          force unit                     : eV/A
 output       velocity unit                     : A/ps
 output       pressure unit                     : GPa
 output     inv_length unit                     : 1/A
 output      frequency unit                     : cm-1
 output force constant unit                     : eV/A**2
 output         volume unit                     : A**3
 output   IR intensity unit                     : (D/A)**2/amu
 output         dipole unit                     : D
 output         efield unit                     : eV/A/e
 output        entropy unit                     : J/mol/K
 output    efield chi2 unit                     : pm/V
  
 wavefunctions paging                           : none
 random number generator seed                   :   60905062
 data distribution                              : optimal for this architecture
 optimization strategy                          : maximize speed(+++)

 *********************** Exchange-Correlation Parameters ***********************
  
 using functional                               : Perdew Burke Ernzerhof
 relativistic treatment                         : Koelling-Harmon
 DFT+D: Semi-empirical dispersion correction    : off

 ************************* Pseudopotential Parameters **************************
  
 pseudopotential representation                 : reciprocal space
 <beta|phi> representation                      : reciprocal space
 spin-orbit coupling                            : off

 **************************** Basis Set Parameters *****************************
  
 plane wave basis set cut-off                   :   650.0000   eV
 size of standard grid                          :     2.0000
 size of   fine   gmax                          :    26.1231   1/A
 finite basis set correction                    : none

 **************************** Electronic Parameters ****************************
  
 number of  electrons                           :  9.000    
 net charge of system                           :  0.000    
 treating system as non-spin-polarized
 number of bands                                :          9

 ********************* Electronic Minimization Parameters **********************
  
 Method: Treating system as metallic with density mixing treatment of electrons,
         and number of  SD  steps               :          1
         and number of  CG  steps               :          4
  
 total energy / atom convergence tol.           : 0.1000E-10   eV
 eigen-energy convergence tolerance             : 0.1000E-10   eV
 max force / atom convergence tol.              : ignored
 convergence tolerance window                   :          3   cycles
 max. number of SCF cycles                      :        100
 number of fixed-spin iterations                :         10
 smearing scheme                                : Gaussian
 smearing width                                 : 0.2000       eV
 Fermi energy convergence tolerance             : 0.2721E-13   eV
 periodic dipole correction                     : NONE

 ************************** Density Mixing Parameters **************************
  
 density-mixing scheme                          : Broyden
 max. length of mixing history                  :         20
 charge density mixing amplitude                : 0.8000    
 cut-off energy for mixing                      :  650.0       eV

 *********************** Population Analysis Parameters ************************
  
 Population analysis with cutoff                :  3.000       A
 Population analysis output                     : summary and pdos components

 ****************************** Phonon Parameters ******************************
  
 phonon calculation method                      : finite displacement
 finite displacement amplitude                  : 0.5292E-02   A
 fine phonon calculation method                 : interpolation
 non-periodic force constant method             : Weighted cumulant sum
 LO/TO splitting term                           : included
 acoustic phonon sum rule                       : correct D(q) in recip-space
 Born effective charges                         : calculated
 Born charge sum rule                           : explicitly enforced
 Raman intensities                              : not calculated
 phonon k-points                                : use reduced set
 phonon DOS                                     : calculated
 phonon DOS resolution                          : 0.1000E-04   eV
 phonon DOS limit                               :  1.000       eV
 backups results every                          :       3400   seconds
 band convergence tolerance                     : 0.1000E-05   eV

 *******************************************************************************
  
 
                           -------------------------------
                                      Unit Cell
                           -------------------------------
        Real Lattice(A)                      Reciprocal Lattice(1/A)
    -2.6364791     2.6364791     2.6364791       -0.000000000   1.191586413   1.191586413
     2.6364791    -2.6364791     2.6364791        1.191586413  -0.000000000   1.191586413
     2.6364791     2.6364791    -2.6364791        1.191586413   1.191586413  -0.000000000
 
                       Lattice parameters(A)       Cell Angles
                    a =      4.566516          alpha =  109.471221
                    b =      4.566516          beta  =  109.471221
                    c =      4.566516          gamma =  109.471221
 
                       Current cell volume =            73.304896       A**3
                                   density =             0.533365   AMU/A**3
                                           =             0.885674     g/cm^3
 
                           -------------------------------
                                     Cell Contents
                           -------------------------------
                         Total number of ions in cell =    1
                      Total number of species in cell =    1
                        Max number of any one species =    1
 
            xxxxxxxxxxxxxxxxxxxxxxxxxxxxxxxxxxxxxxxxxxxxxxxxxxxxxxxxxxxx
            x  Element    Atom        Fractional coordinates of atoms  x
            x            Number           u          v          w      x
            x----------------------------------------------------------x
            x  K            1         0.000000   0.000000   0.000000   x 
            xxxxxxxxxxxxxxxxxxxxxxxxxxxxxxxxxxxxxxxxxxxxxxxxxxxxxxxxxxxx
 
 
                         No user defined ionic velocities
 
                           -------------------------------
                                   Details of Species
                           -------------------------------
 
                               Mass of species in AMU
                                    K   39.0983000
 
                          Electric Quadrupole Moment (Barn)
                                    K    0.0585000 Isotope 39
 
                          Files used for pseudopotentials:
                                    K 2|1.5|9|10|11|30U:40:31(qc=6)
 
                           -------------------------------
                              k-Points For BZ Sampling
                           -------------------------------
                       MP grid size for SCF calculation is  9  9  9
                            with an offset of   0.000  0.000  0.000
                       Number of kpoints used =            35
 
                           -------------------------------
                               Symmetry and Constraints
                           -------------------------------
 
                      Maximum deviation from symmetry = 0.470004E-15     ANG
 
                      Number of symmetry operations   =          48
                      Number of ionic constraints     =           3
                      Point group of crystal =    32: Oh, m-3m, 4/m -3 2/m
                      Space group of crystal =   229: Im-3m, -I 4 2 3
 
             Set iprint > 1 for details on symmetry rotations/translations
 
                         Centre of mass is constrained
             Set iprint > 1 for details of linear ionic constraints
 
                         Number of cell constraints= 5
                         Cell constraints are:  1 1 1 0 0 0
 
                         External pressure/stress (GPa)
                          0.00000   0.00000   0.00000
                                    0.00000   0.00000
                                              0.00000
 ??????????????????????????????????????????????????????????????????????????????? 
     WARNING: Calculation of Born effective charges and IR intensities is not    
              implemented for ultrasoft pseudopotentials.                        
              Parameter CALCULATE_BORN_CHARGES changed to .FALSE.                
 ??????????????????????????????????????????????????????????????????????????????? 
 ??????????????????????????????????????????????????????????????????????????????? 
     WARNING: Calculation of LO/TO splitting is not implemented for ultrasoft    
              pseudopotentials.                                                  
              Parameter PHONON_CALC_LO_TO_SPLITTING changed to .FALSE.           
 ??????????????????????????????????????????????????????????????????????????????? 

 Phonon supercell    1 (of 6)      [  0  1 -1; -1  1  0;  1  2  1]:       4.51s
 -------------------------------------------------------------------------------
  Parallel strategy changed for perturbation using 28 k-points
  Data is distributed by G-vector(11-way) and k-point(28-way) and band(1-way)
  +---------------- MEMORY AND SCRATCH DISK ESTIMATES PER PROCESS --------------+
  |                                                     Memory          Disk    |
  | Baseline code, static data and system overhead      673.0 MB         0.0 MB |
  | BLAS internal memory storage                          0.0 MB         0.0 MB |
  | Model and support data                               21.4 MB         0.0 MB |
  | Finite displacement phonon requirements               9.8 MB         0.0 MB |
  |                                               ----------------------------- |
  | Approx. total storage required per process          704.2 MB         0.0 MB |
  |                                                                             |
  | Requirements will fluctuate during execution and may exceed these estimates |
  +-----------------------------------------------------------------------------+
 Perturbation    1 (of    1): K     1 X at q=( 0.000, 0.000, 0.000):     11.93s
  Parallel strategy changed for perturbation using 63 k-points
  Data is distributed by G-vector(5-way) and k-point(63-way) and band(1-way)
  +---------------- MEMORY AND SCRATCH DISK ESTIMATES PER PROCESS --------------+
  |                                                     Memory          Disk    |
  | Baseline code, static data and system overhead      673.0 MB         0.0 MB |
  | BLAS internal memory storage                          0.0 MB         0.0 MB |
  | Model and support data                               21.4 MB         0.0 MB |
  | Finite displacement phonon requirements              21.6 MB         0.0 MB |
  |                                               ----------------------------- |
  | Approx. total storage required per process          716.0 MB         0.0 MB |
  |                                                                             |
  | Requirements will fluctuate during execution and may exceed these estimates |
  +-----------------------------------------------------------------------------+

 Phonon supercell    2 (of 6)      [ -1  0  0;  0 -1  1;  1  2  2]:      31.36s
 -------------------------------------------------------------------------------
  Parallel strategy changed for perturbation using 48 k-points
  Data is distributed by G-vector(6-way) and k-point(48-way) and band(1-way)

Writing analysis data to K-CollCode44670.castep_bin

Writing model to K-CollCode44670.check
 Perturbation    1 (of    2): K     1 X at q=( 0.000, 0.000, 0.000):     39.80s
  Parallel strategy changed for perturbation using 48 k-points
  Data is distributed by G-vector(20-way) and k-point(16-way) and band(1-way)
 Perturbation    2 (of    2): K     1 Y at q=( 0.000, 0.000, 0.000):     49.17s
  Parallel strategy changed for perturbation using 80 k-points
  Data is distributed by G-vector(4-way) and k-point(80-way) and band(1-way)
  +---------------- MEMORY AND SCRATCH DISK ESTIMATES PER PROCESS --------------+
  |                                                     Memory          Disk    |
  | Baseline code, static data and system overhead      673.0 MB         0.0 MB |
  | BLAS internal memory storage                          0.0 MB         0.0 MB |
  | Model and support data                               21.4 MB         0.0 MB |
  | Finite displacement phonon requirements              24.3 MB         0.0 MB |
  |                                               ----------------------------- |
  | Approx. total storage required per process          718.8 MB         0.0 MB |
  |                                                                             |
  | Requirements will fluctuate during execution and may exceed these estimates |
  +-----------------------------------------------------------------------------+

 Phonon supercell    3 (of 6)      [ -1  0 -1;  1  1  0;  0 -2 -2]:      65.11s
 -------------------------------------------------------------------------------
  Parallel strategy changed for perturbation using 20 k-points
  Data is distributed by G-vector(16-way) and k-point(20-way) and band(1-way)

Writing analysis data to K-CollCode44670.castep_bin

Writing model to K-CollCode44670.check
 Perturbation    1 (of    2): K     1 X at q=( 0.000, 0.000, 0.000):     68.55s
  Parallel strategy changed for perturbation using 20 k-points
  Data is distributed by G-vector(16-way) and k-point(20-way) and band(1-way)
 Perturbation    2 (of    2): K     1 Y at q=( 0.000, 0.000, 0.000):     72.68s
  Parallel strategy changed for perturbation using 32 k-points
  Data is distributed by G-vector(10-way) and k-point(32-way) and band(1-way)

 Phonon supercell    4 (of 6)      [  0  0  1; -1 -1 -1;  2 -2  0]:      79.52s
 -------------------------------------------------------------------------------
  Parallel strategy changed for perturbation using 40 k-points
  Data is distributed by G-vector(8-way) and k-point(40-way) and band(1-way)

Writing analysis data to K-CollCode44670.castep_bin

Writing model to K-CollCode44670.check
 Perturbation    1 (of    2): K     1 X at q=( 0.000, 0.000, 0.000):     85.72s
  Parallel strategy changed for perturbation using 56 k-points
  Data is distributed by G-vector(5-way) and k-point(56-way) and band(1-way)
 Perturbation    2 (of    2): K     1 Z at q=( 0.000, 0.000, 0.000):     99.26s
  Parallel strategy changed for perturbation using 40 k-points
  Data is distributed by G-vector(8-way) and k-point(40-way) and band(1-way)

 Phonon supercell    5 (of 6)      [  0  1  0;  0  0 -1; -2 -1 -1]:     107.24s
 -------------------------------------------------------------------------------
  Parallel strategy changed for perturbation using 60 k-points
  Data is distributed by G-vector(5-way) and k-point(60-way) and band(1-way)

Writing analysis data to K-CollCode44670.castep_bin

Writing model to K-CollCode44670.check
 Perturbation    1 (of    2): K     1 X at q=( 0.000, 0.000, 0.000):    110.34s
  Parallel strategy changed for perturbation using 60 k-points
  Data is distributed by G-vector(16-way) and k-point(20-way) and band(1-way)
 Perturbation    2 (of    2): K     1 Y at q=( 0.000, 0.000, 0.000):    114.39s
  Parallel strategy changed for perturbation using 92 k-points
  Data is distributed by G-vector(3-way) and k-point(92-way) and band(1-way)

 Phonon supercell    6 (of 6)      [  0 -1 -1; -2 -1 -1; -1  0 -2]:     120.73s
 -------------------------------------------------------------------------------
  Parallel strategy changed for perturbation using 54 k-points
  Data is distributed by G-vector(5-way) and k-point(54-way) and band(1-way)

Writing analysis data to K-CollCode44670.castep_bin

Writing model to K-CollCode44670.check
 Perturbation    1 (of    2): K     1 X at q=( 0.000, 0.000, 0.000):    132.94s
  Parallel strategy changed for perturbation using 54 k-points
  Data is distributed by G-vector(160-way) and k-point(2-way) and band(1-way)
 Perturbation    2 (of    2): K     1 Y at q=( 0.000, 0.000, 0.000):    228.23s
  Parallel strategy changed for perturbation using 88 k-points
  Data is distributed by G-vector(3-way) and k-point(88-way) and band(1-way)
  +---------------- MEMORY AND SCRATCH DISK ESTIMATES PER PROCESS --------------+
  |                                                     Memory          Disk    |
  | Baseline code, static data and system overhead      673.0 MB         0.0 MB |
  | BLAS internal memory storage                          0.0 MB         0.0 MB |
  | Model and support data                               21.4 MB         0.0 MB |
  | Finite displacement phonon requirements              32.3 MB         0.0 MB |
  |                                               ----------------------------- |
  | Approx. total storage required per process          726.7 MB         0.0 MB |
  |                                                                             |
  | Requirements will fluctuate during execution and may exceed these estimates |
  +-----------------------------------------------------------------------------+
 
 ==============================================================================
 +                           Vibrational Frequencies                          +
 +                           -----------------------                          +
 +                                                                            +
 + Performing frequency calculation at  8 wavevectors (q-pts)                 +
 + ========================================================================== +
 +                                                                            +
 + -------------------------------------------------------------------------- +
 +  q-pt=    1 ( -0.250000 -0.250000 -0.250000)     0.0312500000              +
 + -------------------------------------------------------------------------- +
 +  Acoustic sum rule correction <   0.000423 cm-1 applied                    +
 +     N      Frequency irrep.                                                + 
 +                (cm-1)                                                      + 
 +                                                                            +
 +     1      58.747485   a                                                   + 
 +     2      58.747485   a                                                   + 
 +     3      58.747485   a                                                   + 
 + .......................................................................... +
 +        Character table from group theory analysis of eigenvectors          +
 +                           Point Group =  32, Oh                            +
 + .......................................................................... +
 +  Rep  Mul |    E  -4   2   m   3                                           +
 +           | --------------------                                           +
 + a       1 |    3  -1  -1   1   0                                           +
 + -------------------------------------------------------------------------- +
 +  q-pt=    2 (  0.000000 -0.250000 -0.250000)     0.3750000000              +
 + -------------------------------------------------------------------------- +
 +  Acoustic sum rule correction <   0.000788 cm-1 applied                    +
 +     N      Frequency irrep.                                                + 
 +                (cm-1)                                                      + 
 +                                                                            +
 +     1      31.567228   a                                                   + 
 +     2      55.378367   b                                                   + 
 +     3      71.836502   a                                                   + 
 + .......................................................................... +
 +        Character table from group theory analysis of eigenvectors          +
 +                           Point Group =  32, Oh                            +
 + .......................................................................... +
 +  Rep  Mul |    E   m                                                       +
 +           | --------                                                       +
 + a       2 |    1   1                                                       +
 + b       1 |    1  -1                                                       +
 + -------------------------------------------------------------------------- +
 +  q-pt=    3 (  0.000000  0.000000  0.000000)     0.0156250000              +
 + -------------------------------------------------------------------------- +
 +  Acoustic sum rule correction <   0.201569 cm-1 applied                    +
 +     N      Frequency irrep.              ir active            raman active + 
 +                (cm-1)                                                      + 
 +                                                                            +
 +     1      -0.022617   a                     N                       N     + 
 +     2      -0.022617   a                     N                       N     + 
 +     3      -0.022617   a                     N                       N     + 
 + .......................................................................... +
 +        Character table from group theory analysis of eigenvectors          +
 +                           Point Group =  32, Oh                            +
 + .......................................................................... +
 +  Rep  Mul |    E   I   4  -4   2 m_h  2' m_v   3  -3                       +
 +           | ----------------------------------------                       +
 + a T1u   1 |    3  -3   1  -1  -1   1  -1   1   0   0                       +
 + -------------------------------------------------------------------------- +
 +  q-pt=    4 (  0.250000 -0.250000 -0.250000)     0.0937500000              +
 + -------------------------------------------------------------------------- +
 +  Acoustic sum rule correction <   0.000487 cm-1 applied                    +
 +     N      Frequency irrep.                                                + 
 +                (cm-1)                                                      + 
 +                                                                            +
 +     1      51.067973   a                                                   + 
 +     2      51.067973   a                                                   + 
 +     3      54.178612   b                                                   + 
 + .......................................................................... +
 +        Character table from group theory analysis of eigenvectors          +
 +                           Point Group =  32, Oh                            +
 + .......................................................................... +
 +  Rep  Mul |    E   m   2   4   m                                           +
 +           | --------------------                                           +
 + a       1 |    2   0  -2   0   0                                           +
 + b       1 |    1   1   1   1   1                                           +
 + -------------------------------------------------------------------------- +
 +  q-pt=    5 (  0.250000 -0.250000  0.000000)     0.1875000000              +
 + -------------------------------------------------------------------------- +
 +  Acoustic sum rule correction <   0.001804 cm-1 applied                    +
 +     N      Frequency irrep.                                                + 
 +                (cm-1)                                                      + 
 +                                                                            +
 +     1      13.789491   a                                                   + 
 +     2      38.529343   b                                                   + 
 +     3      56.296069   c                                                   + 
 + .......................................................................... +
 +        Character table from group theory analysis of eigenvectors          +
 +                           Point Group =  32, Oh                            +
 + .......................................................................... +
 +  Rep  Mul |    E   m   2   m                                               +
 +           | ----------------                                               +
 + a       1 |    1   1  -1  -1                                               +
 + b       1 |    1  -1  -1   1                                               +
 + c       1 |    1   1   1   1                                               +
 + -------------------------------------------------------------------------- +
 +  q-pt=    6 ( -0.500000  0.000000  0.000000)     0.0937500000              +
 + -------------------------------------------------------------------------- +
 +  Acoustic sum rule correction <   0.001451 cm-1 applied                    +
 +     N      Frequency irrep.                                                + 
 +                (cm-1)                                                      + 
 +                                                                            +
 +     1      17.139537   a                                                   + 
 +     2      51.473983   b                                                   + 
 +     3      77.084649   c                                                   + 
 + .......................................................................... +
 +        Character table from group theory analysis of eigenvectors          +
 +                           Point Group =  32, Oh                            +
 + .......................................................................... +
 +  Rep  Mul |    E   I   2   m   2   m   2   m                               +
 +           | --------------------------------                               +
 + a       1 |    1  -1  -1   1  -1   1   1  -1                               +
 + b       1 |    1  -1   1  -1  -1   1  -1   1                               +
 + c       1 |    1  -1  -1   1   1  -1  -1   1                               +
 + -------------------------------------------------------------------------- +
 +  q-pt=    7 ( -0.500000  0.250000 -0.250000)     0.1875000000              +
 + -------------------------------------------------------------------------- +
 +  Acoustic sum rule correction <   0.000489 cm-1 applied                    +
 +     N      Frequency irrep.                                                + 
 +                (cm-1)                                                      + 
 +                                                                            +
 +     1      50.864151   a                                                   + 
 +     2      63.780116   b                                                   + 
 +     3      75.088117   c                                                   + 
 + .......................................................................... +
 +        Character table from group theory analysis of eigenvectors          +
 +                           Point Group =  32, Oh                            +
 + .......................................................................... +
 +  Rep  Mul |    E   m   m   2                                               +
 +           | ----------------                                               +
 + a       1 |    1   1   1   1                                               +
 + b       1 |    1  -1   1  -1                                               +
 + c       1 |    1   1  -1  -1                                               +
 + -------------------------------------------------------------------------- +
 +  q-pt=    8 ( -0.500000 -0.500000 -0.500000)     0.0156250000              +
 + -------------------------------------------------------------------------- +
 +  Acoustic sum rule correction <   0.000338 cm-1 applied                    +
 +     N      Frequency irrep.                                                + 
 +                (cm-1)                                                      + 
 +                                                                            +
 +     1      73.567507   a                                                   + 
 +     2      73.567507   a                                                   + 
 +     3      73.567507   a                                                   + 
 + .......................................................................... +
 +        Character table from group theory analysis of eigenvectors          +
 +                           Point Group =  32, Oh                            +
 + .......................................................................... +
 +  Rep  Mul |    E   I   4  -4   2   m   2   m   3  -3                       +
 +           | ----------------------------------------                       +
 + a       1 |    3  -3   1  -1  -1   1  -1   1   0   0                       +
 ==============================================================================
 
 ******************** Symmetrised Forces ********************
 *                                                          *
 *               Cartesian components (eV/A)                *
 * -------------------------------------------------------- *
 *                         x            y            z      *
 *                                                          *
 * K               1      0.00000      0.00000      0.00000 *
 *                                                          *
 ************************************************************
 
 *********** Symmetrised Stress Tensor ***********
 *                                               *
 *          Cartesian components (GPa)           *
 * --------------------------------------------- *
 *             x             y             z     *
 *                                               *
 *  x     -0.017768      0.000000     -0.000000  *
 *  y      0.000000     -0.017768      0.000000  *
 *  z     -0.000000      0.000000     -0.017768  *
 *                                               *
 *  Pressure:    0.0178                          *
 *                                               *
 *************************************************
 
 Pseudo atomic calculation performed for K 3s2 3p6 4s1
 
 Converged in 39 iterations to a total energy of -790.3776 eV
Charge spilling parameter for spin component 1 = 0.28%
 
            Orbital Populations       
     Ion    Atom   Orbital             Charge
  -------------------------------------------
      K     1      S                    2.001
      K     1      Px                   2.001
      K     1      Py                   2.001
      K     1      Pz                   2.002
      K     1      S                    0.476
      K     1      Px                   0.238
      K     1      Py                   0.216
      K     1      Pz                   0.065
  -------------------------------------------
                           Total:       9.000
  -------------------------------------------
 
     Atomic Populations (Mulliken)
     -----------------------------
Species          Ion     s      p      d      f     Total  Charge (e)
=====================================================================
  K               1     2.48   6.52   0.00   0.00   9.00     0.00
=====================================================================
 
                 Bond                   Population      Length (A)
======================================================================
======================================================================
 

Writing analysis data to K-CollCode44670.castep_bin

Writing model to K-CollCode44670.check
Initialisation time =      4.45 s
Calculation time    =    255.35 s
Finalisation time   =      0.28 s
Total time          =    260.08 s
Peak Memory Use     = 981752 kB
  
Overall parallel efficiency rating: Poor (36%)                                  
  
Data was distributed by:-
G-vector (64-way); efficiency rating: Poor (39%)                                
k-point (5-way); efficiency rating: Very good (82%)                             
  
Parallel notes:
1) Calculation only took 259.8 s, so efficiency estimates may be inaccurate.    
 +-------------------------------------------------+
 |                                                 |
 |      CCC   AA    SSS  TTTTT  EEEEE  PPPP        |
 |     C     A  A  S       T    E      P   P       |
 |     C     AAAA   SS     T    EEE    PPPP        |
 |     C     A  A     S    T    E      P           |
 |      CCC  A  A  SSS     T    EEEEE  P           |
 |                                                 |
 +-------------------------------------------------+
 |                                                 |
 | Welcome to Academic Release CASTEP version 20.1 |          
 | Ab Initio Total Energy Program                  |
 |                                                 |
 | Authors:                                        |
 | M. Segall, M. Probert, C. Pickard, P. Hasnip,   |
 | S. Clark, K. Refson, J. R. Yates, M. Payne      |
 |                                                 |
 | Contributors:                                   |
 | P. Lindan, P. Haynes, J. White, V. Milman,      |
 | N. Govind, M. Gibson, P. Tulip, V. Cocula,      |
 | B. Montanari, D. Quigley, M. Glover,            |
 | L. Bernasconi, A. Perlov, M. Plummer,           |
 | E. McNellis, J. Meyer, J. Gale, D. Jochym       |
 | J. Aarons, B. Walker, R. Gillen, D. Jones       |
 | T. Green, I. J. Bush, C. J. Armstrong,          |
 | E. J. Higgins, E. L. Brown, M. S. McFly,        |
 | J. Wilkins, B-C. Shih, P. J. P. Byrne,          |
 | R. J. Maurer, J. C. Womack, A. Bartok-Partay    |
 |                                                 |
 | Copyright (c) 2000 - 2019                       |
 |                                                 |
 |     Distributed under the terms of an           |
 |     Agreement between the United Kingdom        |
 |     Car-Parrinello (UKCP) Consortium,           |
 |     Daresbury Laboratory and Accelrys, Inc.     |
 |                                                 |
 | Please cite                                     |
 |                                                 |
 |     "First principles methods using CASTEP"     |
 |                                                 |
 |         Zeitschrift fuer Kristallographie       |
 |           220(5-6) pp. 567-570 (2005)           |
 |                                                 |
 | S. J. Clark, M. D. Segall, C. J. Pickard,       |
 | P. J. Hasnip, M. J. Probert, K. Refson,         |
 | M. C. Payne                                     |
 |                                                 |
 |       in all publications arising from          |
 |              your use of CASTEP                 |
 |                                                 |
 +-------------------------------------------------+
 |                                                 |
 |              http://www.castep.org              |
 |                                                 |
 +-------------------------------------------------+
 
 
 
 Compiled for linux_x86_64_ifort17 on Fri, 06 Sep 2019 21:05:36 +0100
 from code version Version unavailable
 Compiler: Intel Fortran 17.0.4.196; Optimisation: fast
 MATHLIBS: Intel MKL(2017.0.3) (LAPACK version 3.7.0)
 FFT Lib : mkl
 Fundamental constants values: CODATA 2014
 
 Run started: Tue, 10 Mar 2020 06:13:55 +0000
 Warning - deprecated keyword PHONON_SUM_RULE found in input file
         - preferred usage is PHONON_SUM_RULE_METHOD

 Warning in parameters_validate: current value of 
   ELEC_EIGENVALUE_TOL = 0.100000E-10eV
   is too large to achieve desired level of convergence of response properties.
   This may cause convergence failures and/or inaccuracy of results
   of PHONON calculations - recommend you use a smaller value, e.g. 
   ELEC_EIGENVALUE_TOL = 0.111111E-11eV
 +-------------------------------------------------+
 |                                                 |
 |  D D D D    F F F F F  P P P P     T T T T T    |
 |  D       D  F          P       P       T        |
 |  D       D  F F F F    P P P P         T        |
 |  D       D  F          P               T        |
 |  D D D D    F          P               T        |
 |                                                 |
 +-------------------------------------------------+
 |                                                 |
 | Welcome to Castep Linear Response (DFPT)        |
 |                                                 |
 | Copyright (c) 2006 - 2019                       |
 |                                                 |
 | Please cite the following publications in all   |
 | work arising from your use of CASTEP LR.        |
 |                                                 |
 | K. Refson, S. J. Clark and P. R. Tulip          |
 | Variational density functional perturbation     |
 | theory for dielectrics and lattice dynamics     |
 | Phys. Rev. B 73(15), 155114 (2006)              |
 +-------------------------------------------------+
 
Reading continuation data from model file K-CollCode44670.check
 
 Atomic calculation performed for K: 1s2 2s2 2p6 3s2 3p6 4s1
 
 Converged in 52 iterations to an ae energy of -16383.606 eV
 
   ============================================================                
   | Pseudopotential Report - Date of generation 10-03-2020   |                
   ------------------------------------------------------------                
   | Element: K Ionic charge:  9.00 Level of theory: PBE      |                
   | Atomic Solver: Koelling-Harmon                           |                
   |                                                          |                
   |               Reference Electronic Structure             |                
   |         Orbital         Occupation         Energy        |                
   |            3s              2.000           -1.299        |                
   |            3p              6.000           -0.691        |                
   |            4s              1.000           -0.085        |                
   |                                                          |                
   |                 Pseudopotential Definition               |                
   |        Beta     l      e      Rc     scheme   norm       |                
   |          1      0   -1.299   1.500     qc      0         |                
   |          2      0   -0.085   1.500     qc      0         |                
   |          3      0    0.250   1.500     qc      0         |                
   |          4      1   -0.691   1.500     qc      0         |                
   |          5      1    0.250   1.500     qc      0         |                
   |         loc     2    0.000   1.500     pn      0         |                
   |                                                          |                
   | Augmentation charge Rinner = 1.048                       |                
   | Partial core correction Rc = 1.048                       |                
   ------------------------------------------------------------                
   | "2|1.5|9|10|11|30U:40:31(qc=6)"                          |                
   ------------------------------------------------------------                
   |      Author: Chris J. Pickard, Cambridge University      |                
   ============================================================                
 
 Pseudo atomic calculation performed for K 3s2 3p6 4s1
 
 Converged in 39 iterations to a total energy of -790.3776 eV
Initialising basis set for model.
Reinitialising basis set for current geometry.
Continuing from previous run with ground state wavefunction.
Continuing from previous run with ground state density.
 Info: PHONON_SUM_RULE modified from F to T
 Warning - deprecated keyword PHONON_SUM_RULE modified in input file
         - preferred usage is PHONON_SUM_RULE_METHOD
 WARNING: phonon fine_frequency data in check file HAS BEEN DISCARDED.
          because PHONON_FINE_KPOINT_LIST changed on continuation.
 WARNING: phonon thermal ADP data in check file HAS BEEN DISCARDED.
 WARNING: phonon DOS data in check file HAS BEEN DISCARDED.
 Calculation parallelised over 320 processes.
 Data is distributed by G-vector(64-way) and k-point(5-way)

 ************************************ Title ************************************
 

 ***************************** General Parameters ******************************
  
 output verbosity                               : normal  (1)
 continuing from                                : K-CollCode44670.check
 write checkpoint data to                       : K-CollCode44670.check
 type of calculation                            : phonon calculation
 stress calculation                             : off
 density difference calculation                 : off
 electron localisation func (ELF) calculation   : off
 Hirshfeld analysis                             : off
 molecular orbital projected DOS                : off
 deltaSCF calculation                           : off
 unlimited duration calculation
 timing information                             : on
 memory usage estimate                          : on
 write extra output files                       : on
 write final potential to formatted file        : off
 write final density to formatted file          : off
 write structure in CELL formatted file         : on
 write BibTeX reference list                    : off
 write OTFG pseudopotential files               : on
 write electrostatic potential file             : on
 write bands file                               : on
 checkpoint writing                             : both castep_bin and check files
  
 output         length unit                     : A
 output           mass unit                     : amu
 output           time unit                     : ps
 output         charge unit                     : e
 output           spin unit                     : hbar/2
 output         energy unit                     : eV
 output          force unit                     : eV/A
 output       velocity unit                     : A/ps
 output       pressure unit                     : GPa
 output     inv_length unit                     : 1/A
 output      frequency unit                     : cm-1
 output force constant unit                     : eV/A**2
 output         volume unit                     : A**3
 output   IR intensity unit                     : (D/A)**2/amu
 output         dipole unit                     : D
 output         efield unit                     : eV/A/e
 output        entropy unit                     : J/mol/K
 output    efield chi2 unit                     : pm/V
  
 wavefunctions paging                           : none
 random number generator seed                   :   60905062
[...]
 + -------------------------------------------------------------------------- +
 +  Acoustic sum rule correction <   0.000864 cm-1 applied                    +
 +     N      Frequency irrep.                                                + 
 +                (cm-1)                                                      + 
 +                                                                            +
 +     1      28.798855   a                                                   + 
 +     2      53.719991   b                                                   + 
 +     3      75.039516   c                                                   + 
 + .......................................................................... +
 +        Character table from group theory analysis of eigenvectors          +
 +                           Point Group =  32, Oh                            +
 + .......................................................................... +
 +  Rep  Mul |    E   2   m   m                                               +
 +           | ----------------                                               +
 + a       1 |    1  -1  -1   1                                               +
 + b       1 |    1   1   1   1                                               +
 + c       1 |    1  -1   1  -1                                               +
 + -------------------------------------------------------------------------- +
 +  q-pt=  261 (  0.080357  0.080357  0.419643)     0.0037037037              +
 + -------------------------------------------------------------------------- +
 +  Acoustic sum rule correction <   0.000919 cm-1 applied                    +
 +     N      Frequency irrep.                                                + 
 +                (cm-1)                                                      + 
 +                                                                            +
 +     1      27.052244   a                                                   + 
 +     2      53.342329   b                                                   + 
 +     3      75.442575   c                                                   + 
 + .......................................................................... +
 +        Character table from group theory analysis of eigenvectors          +
 +                           Point Group =  32, Oh                            +
 + .......................................................................... +
 +  Rep  Mul |    E   2   m   m                                               +
 +           | ----------------                                               +
 + a       1 |    1  -1  -1   1                                               +
 + b       1 |    1   1   1   1                                               +
 + c       1 |    1  -1   1  -1                                               +
 + -------------------------------------------------------------------------- +
 +  q-pt=  262 (  0.071429  0.071429  0.428571)     0.0037037037              +
 + -------------------------------------------------------------------------- +
 +  Acoustic sum rule correction <   0.000981 cm-1 applied                    +
 +     N      Frequency irrep.                                                + 
 +                (cm-1)                                                      + 
 +                                                                            +
 +     1      25.356220   a                                                   + 
 +     2      52.986106   b                                                   + 
 +     3      75.797903   c                                                   + 
 + .......................................................................... +
 +        Character table from group theory analysis of eigenvectors          +
 +                           Point Group =  32, Oh                            +
 + .......................................................................... +
 +  Rep  Mul |    E   2   m   m                                               +
 +           | ----------------                                               +
 + a       1 |    1  -1  -1   1                                               +
 + b       1 |    1   1   1   1                                               +
 + c       1 |    1  -1   1  -1                                               +
 + -------------------------------------------------------------------------- +
 +  q-pt=  263 (  0.062500  0.062500  0.437500)     0.0037037037              +
 + -------------------------------------------------------------------------- +
 +  Acoustic sum rule correction <   0.001048 cm-1 applied                    +
 +     N      Frequency irrep.                                                + 
 +                (cm-1)                                                      + 
 +                                                                            +
 +     1      23.731992   a                                                   + 
 +     2      52.656714   b                                                   + 
 +     3      76.106993   c                                                   + 
 + .......................................................................... +
 +        Character table from group theory analysis of eigenvectors          +
 +                           Point Group =  32, Oh                            +
 + .......................................................................... +
 +  Rep  Mul |    E   2   m   m                                               +
 +           | ----------------                                               +
 + a       1 |    1  -1  -1   1                                               +
 + b       1 |    1   1   1   1                                               +
 + c       1 |    1  -1   1  -1                                               +
 + -------------------------------------------------------------------------- +
 +  q-pt=  264 (  0.053571  0.053571  0.446429)     0.0037037037              +
 + -------------------------------------------------------------------------- +
 +  Acoustic sum rule correction <   0.001120 cm-1 applied                    +
 +     N      Frequency irrep.                                                + 
 +                (cm-1)                                                      + 
 +                                                                            +
 +     1      22.205633   a                                                   + 
 +     2      52.359298   b                                                   + 
 +     3      76.371316   c                                                   + 
 + .......................................................................... +
 +        Character table from group theory analysis of eigenvectors          +
 +                           Point Group =  32, Oh                            +
 + .......................................................................... +
 +  Rep  Mul |    E   2   m   m                                               +
 +           | ----------------                                               +
 + a       1 |    1  -1  -1   1                                               +
 + b       1 |    1   1   1   1                                               +
 + c       1 |    1  -1   1  -1                                               +
 + -------------------------------------------------------------------------- +
 +  q-pt=  265 (  0.044643  0.044643  0.455357)     0.0037037037              +
 + -------------------------------------------------------------------------- +
 +  Acoustic sum rule correction <   0.001195 cm-1 applied                    +
 +     N      Frequency irrep.                                                + 
 +                (cm-1)                                                      + 
 +                                                                            +
 +     1      20.808702   a                                                   + 
 +     2      52.098638   b                                                   + 
 +     3      76.592270   c                                                   + 
 + .......................................................................... +
 +        Character table from group theory analysis of eigenvectors          +
 +                           Point Group =  32, Oh                            +
 + .......................................................................... +
 +  Rep  Mul |    E   2   m   m                                               +
 +           | ----------------                                               +
 + a       1 |    1  -1  -1   1                                               +
 + b       1 |    1   1   1   1                                               +
 + c       1 |    1  -1   1  -1                                               +
 + -------------------------------------------------------------------------- +
 +  q-pt=  266 (  0.035714  0.035714  0.464286)     0.0037037037              +
 + -------------------------------------------------------------------------- +
 +  Acoustic sum rule correction <   0.001271 cm-1 applied                    +
 +     N      Frequency irrep.                                                + 
 +                (cm-1)                                                      + 
 +                                                                            +
 +     1      19.578310   a                                                   + 
 +     2      51.879026   b                                                   + 
 +     3      76.771130   c                                                   + 
 + .......................................................................... +
 +        Character table from group theory analysis of eigenvectors          +
 +                           Point Group =  32, Oh                            +
 + .......................................................................... +
 +  Rep  Mul |    E   2   m   m                                               +
 +           | ----------------                                               +
 + a       1 |    1  -1  -1   1                                               +
 + b       1 |    1   1   1   1                                               +
 + c       1 |    1  -1   1  -1                                               +
 + -------------------------------------------------------------------------- +
 +  q-pt=  267 (  0.026786  0.026786  0.473214)     0.0037037037              +
 + -------------------------------------------------------------------------- +
 +  Acoustic sum rule correction <   0.001341 cm-1 applied                    +
 +     N      Frequency irrep.                                                + 
 +                (cm-1)                                                      + 
 +                                                                            +
 +     1      18.556014   a                                                   + 
 +     2      51.704161   b                                                   + 
 +     3      76.909010   c                                                   + 
 + .......................................................................... +
 +        Character table from group theory analysis of eigenvectors          +
 +                           Point Group =  32, Oh                            +
 + .......................................................................... +
 +  Rep  Mul |    E   2   m   m                                               +
 +           | ----------------                                               +
 + a       1 |    1  -1  -1   1                                               +
 + b       1 |    1   1   1   1                                               +
 + c       1 |    1  -1   1  -1                                               +
 + -------------------------------------------------------------------------- +
 +  q-pt=  268 (  0.017857  0.017857  0.482143)     0.0037037037              +
 + -------------------------------------------------------------------------- +
 +  Acoustic sum rule correction <   0.001399 cm-1 applied                    +
 +     N      Frequency irrep.                                                + 
 +                (cm-1)                                                      + 
 +                                                                            +
 +     1      17.784746   a                                                   + 
 +     2      51.577037   b                                                   + 
 +     3      77.006818   c                                                   + 
 + .......................................................................... +
 +        Character table from group theory analysis of eigenvectors          +
 +                           Point Group =  32, Oh                            +
 + .......................................................................... +
 +  Rep  Mul |    E   2   m   m                                               +
 +           | ----------------                                               +
 + a       1 |    1  -1  -1   1                                               +
 + b       1 |    1   1   1   1                                               +
 + c       1 |    1  -1   1  -1                                               +
 + -------------------------------------------------------------------------- +
 +  q-pt=  269 (  0.008929  0.008929  0.491071)     0.0037037037              +
 + -------------------------------------------------------------------------- +
 +  Acoustic sum rule correction <   0.001438 cm-1 applied                    +
 +     N      Frequency irrep.                                                + 
 +                (cm-1)                                                      + 
 +                                                                            +
 +     1      17.303363   a                                                   + 
 +     2      51.499860   b                                                   + 
 +     3      77.065226   c                                                   + 
 + .......................................................................... +
 +        Character table from group theory analysis of eigenvectors          +
 +                           Point Group =  32, Oh                            +
 + .......................................................................... +
 +  Rep  Mul |    E   2   m   m                                               +
 +           | ----------------                                               +
 + a       1 |    1  -1  -1   1                                               +
 + b       1 |    1   1   1   1                                               +
 + c       1 |    1  -1   1  -1                                               +
 + -------------------------------------------------------------------------- +
 +  q-pt=  270 (  0.000000  0.000000  0.500000)     0.0037037037              +
 + -------------------------------------------------------------------------- +
 +  Acoustic sum rule correction <   0.001451 cm-1 applied                    +
 +     N      Frequency irrep.                                                + 
 +                (cm-1)                                                      + 
 +                                                                            +
 +     1      17.139537   a                                                   + 
 +     2      51.473983   b                                                   + 
 +     3      77.084649   c                                                   + 
 + .......................................................................... +
 +        Character table from group theory analysis of eigenvectors          +
 +                           Point Group =  32, Oh                            +
 + .......................................................................... +
 +  Rep  Mul |    E   I   2   m   2   m   2   m                               +
 +           | --------------------------------                               +
 + a       1 |    1  -1  -1   1   1  -1  -1   1                               +
 + b       1 |    1  -1   1  -1  -1   1  -1   1                               +
 + c       1 |    1  -1  -1   1  -1   1   1  -1                               +
 ==============================================================================
 
 ******************** Symmetrised Forces ********************
 *                                                          *
 *               Cartesian components (eV/A)                *
 * -------------------------------------------------------- *
 *                         x            y            z      *
 *                                                          *
 * K               1      0.00000      0.00000      0.00000 *
 *                                                          *
 ************************************************************
 
 *********** Symmetrised Stress Tensor ***********
 *                                               *
 *          Cartesian components (GPa)           *
 * --------------------------------------------- *
 *             x             y             z     *
 *                                               *
 *  x     -0.017768      0.000000     -0.000000  *
 *  y      0.000000     -0.017768      0.000000  *
 *  z     -0.000000      0.000000     -0.017768  *
 *                                               *
 *  Pressure:    0.0178                          *
 *                                               *
 *************************************************
 
 Pseudo atomic calculation performed for K 3s2 3p6 4s1
 
 Converged in 39 iterations to a total energy of -790.3776 eV
Charge spilling parameter for spin component 1 = 0.28%
 
            Orbital Populations       
     Ion    Atom   Orbital             Charge
  -------------------------------------------
      K     1      S                    2.001
      K     1      Px                   2.001
      K     1      Py                   2.001
      K     1      Pz                   2.002
      K     1      S                    0.476
      K     1      Px                   0.238
      K     1      Py                   0.216
      K     1      Pz                   0.065
  -------------------------------------------
                           Total:       9.000
  -------------------------------------------
 
     Atomic Populations (Mulliken)
     -----------------------------
Species          Ion     s      p      d      f     Total  Charge (e)
=====================================================================
  K               1     2.48   6.52   0.00   0.00   9.00     0.00
=====================================================================
 
                 Bond                   Population      Length (A)
======================================================================
======================================================================
 

Writing analysis data to K-CollCode44670.castep_bin

Writing model to K-CollCode44670.check
Initialisation time =      4.51 s
Calculation time    =      0.80 s
Finalisation time   =      0.30 s
Total time          =      5.60 s
Peak Memory Use     = 828732 kB
  
Overall parallel efficiency rating: Terrible (19%)                              
  
Data was distributed by:-
G-vector (64-way); efficiency rating: Terrible (21%)                            
k-point (5-way); efficiency rating: Poor (35%)                                  
  
Parallel notes:
1) Calculation only took 5.3 s, so efficiency estimates may be inaccurate.      
