 +-------------------------------------------------+
 |                                                 |
 |      CCC   AA    SSS  TTTTT  EEEEE  PPPP        |
 |     C     A  A  S       T    E      P   P       |
 |     C     AAAA   SS     T    EEE    PPPP        |
 |     C     A  A     S    T    E      P           |
 |      CCC  A  A  SSS     T    EEEEE  P           |
 |                                                 |
 +-------------------------------------------------+
 |                                                 |
 | Welcome to Academic Release CASTEP version 20.1 |          
 | Ab Initio Total Energy Program                  |
 |                                                 |
 | Authors:                                        |
 | M. Segall, M. Probert, C. Pickard, P. Hasnip,   |
 | S. Clark, K. Refson, J. R. Yates, M. Payne      |
 |                                                 |
 | Contributors:                                   |
 | P. Lindan, P. Haynes, J. White, V. Milman,      |
 | N. Govind, M. Gibson, P. Tulip, V. Cocula,      |
 | B. Montanari, D. Quigley, M. Glover,            |
 | L. Bernasconi, A. Perlov, M. Plummer,           |
 | E. McNellis, J. Meyer, J. Gale, D. Jochym       |
 | J. Aarons, B. Walker, R. Gillen, D. Jones       |
 | T. Green, I. J. Bush, C. J. Armstrong,          |
 | E. J. Higgins, E. L. Brown, M. S. McFly,        |
 | J. Wilkins, B-C. Shih, P. J. P. Byrne,          |
 | R. J. Maurer, J. C. Womack, A. Bartok-Partay    |
 |                                                 |
 | Copyright (c) 2000 - 2019                       |
 |                                                 |
 |     Distributed under the terms of an           |
 |     Agreement between the United Kingdom        |
 |     Car-Parrinello (UKCP) Consortium,           |
 |     Daresbury Laboratory and Accelrys, Inc.     |
 |                                                 |
 | Please cite                                     |
 |                                                 |
 |     "First principles methods using CASTEP"     |
 |                                                 |
 |         Zeitschrift fuer Kristallographie       |
 |           220(5-6) pp. 567-570 (2005)           |
 |                                                 |
 | S. J. Clark, M. D. Segall, C. J. Pickard,       |
 | P. J. Hasnip, M. J. Probert, K. Refson,         |
 | M. C. Payne                                     |
 |                                                 |
 |       in all publications arising from          |
 |              your use of CASTEP                 |
 |                                                 |
 +-------------------------------------------------+
 |                                                 |
 |              http://www.castep.org              |
 |                                                 |
 +-------------------------------------------------+
 
 
 
 Compiled for linux_x86_64_ifort17 on Fri, 06 Sep 2019 21:05:36 +0100
 from code version Version unavailable
 Compiler: Intel Fortran 17.0.4.196; Optimisation: fast
 MATHLIBS: Intel MKL(2017.0.3) (LAPACK version 3.7.0)
 FFT Lib : mkl
 Fundamental constants values: CODATA 2014
 
 Run started: Tue, 10 Mar 2020 06:15:01 +0000
 Warning - deprecated keyword PHONON_SUM_RULE found in input file
         - preferred usage is PHONON_SUM_RULE_METHOD
 
 Atomic calculation performed for P: 1s2 2s2 2p6 3s2 3p3
 
 Converged in 56 iterations to an ae energy of -9303.626 eV
 
   ============================================================                
   | Pseudopotential Report - Date of generation 10-03-2020   |                
   ------------------------------------------------------------                
   | Element: P Ionic charge:  5.00 Level of theory: PBE      |                
   | Atomic Solver: Koelling-Harmon                           |                
   |                                                          |                
   |               Reference Electronic Structure             |                
   |         Orbital         Occupation         Energy        |                
   |            3s              2.000           -0.513        |                
   |            3p              3.000           -0.202        |                
   |                                                          |                
   |                 Pseudopotential Definition               |                
   |        Beta     l      e      Rc     scheme   norm       |                
   |          1      0   -0.513   1.807     qc      0         |                
   |          2      0    0.250   1.807     qc      0         |                
   |          3      1   -0.202   1.807     qc      0         |                
   |          4      1    0.250   1.807     qc      0         |                
   |          5      2    0.000   1.807     qc      0         |                
   |          6      2    0.250   1.807     qc      0         |                
   |         loc     3    0.000   1.807     pn      0         |                
   |                                                          |                
   | Augmentation charge Rinner = 1.263                       |                
   | Partial core correction Rc = 1.263                       |                
   ------------------------------------------------------------                
   | "3|1.8|4|4|5|30:31:32"                                   |                
   ------------------------------------------------------------                
   |      Author: Chris J. Pickard, Cambridge University      |                
   ============================================================                
 
 Atomic calculation performed for K: 1s2 2s2 2p6 3s2 3p6 4s1
 
 Converged in 52 iterations to an ae energy of -16383.606 eV
 
   ============================================================                
   | Pseudopotential Report - Date of generation 10-03-2020   |                
   ------------------------------------------------------------                
   | Element: K Ionic charge:  9.00 Level of theory: PBE      |                
   | Atomic Solver: Koelling-Harmon                           |                
   |                                                          |                
   |               Reference Electronic Structure             |                
   |         Orbital         Occupation         Energy        |                
   |            3s              2.000           -1.299        |                
   |            3p              6.000           -0.691        |                
   |            4s              1.000           -0.085        |                
   |                                                          |                
   |                 Pseudopotential Definition               |                
   |        Beta     l      e      Rc     scheme   norm       |                
   |          1      0   -1.299   1.500     qc      0         |                
   |          2      0   -0.085   1.500     qc      0         |                
   |          3      0    0.250   1.500     qc      0         |                
   |          4      1   -0.691   1.500     qc      0         |                
   |          5      1    0.250   1.500     qc      0         |                
   |         loc     2    0.000   1.500     pn      0         |                
   |                                                          |                
   | Augmentation charge Rinner = 1.048                       |                
   | Partial core correction Rc = 1.048                       |                
   ------------------------------------------------------------                
   | "2|1.5|9|10|11|30U:40:31(qc=6)"                          |                
   ------------------------------------------------------------                
   |      Author: Chris J. Pickard, Cambridge University      |                
   ============================================================                
 
 Pseudo atomic calculation performed for P 3s2 3p3
 
 Converged in 33 iterations to a total energy of -214.2223 eV
 
 Pseudo atomic calculation performed for K 3s2 3p6 4s1
 
 Converged in 39 iterations to a total energy of -790.3776 eV
 Calculation parallelised over 312 processes.
 Data is distributed by G-vector(26-way) and k-point(12-way)

 ************************************ Title ************************************
 

 ***************************** General Parameters ******************************
  
 output verbosity                               : normal  (1)
 write checkpoint data to                       : KP-yzcni8.check
 type of calculation                            : geometry optimization
 stress calculation                             : off
 density difference calculation                 : off
 electron localisation func (ELF) calculation   : off
 Hirshfeld analysis                             : off
 molecular orbital projected DOS                : off
 deltaSCF calculation                           : off
 unlimited duration calculation
 timing information                             : on
 memory usage estimate                          : on
 write extra output files                       : on
 write final potential to formatted file        : off
 write final density to formatted file          : off
 write structure in CELL formatted file         : on
 write BibTeX reference list                    : off
 write OTFG pseudopotential files               : on
 write electrostatic potential file             : on
 write bands file                               : on
 checkpoint writing                             : both castep_bin and check files
  
 output         length unit                     : A
 output           mass unit                     : amu
 output           time unit                     : ps
 output         charge unit                     : e
 output           spin unit                     : hbar/2
 output         energy unit                     : eV
 output          force unit                     : eV/A
 output       velocity unit                     : A/ps
 output       pressure unit                     : GPa
 output     inv_length unit                     : 1/A
 output      frequency unit                     : cm-1
 output force constant unit                     : eV/A**2
 output         volume unit                     : A**3
 output   IR intensity unit                     : (D/A)**2/amu
 output         dipole unit                     : D
 output         efield unit                     : eV/A/e
 output        entropy unit                     : J/mol/K
 output    efield chi2 unit                     : pm/V
  
 wavefunctions paging                           : none
 random number generator seed                   : randomised (61501566)
 data distribution                              : optimal for this architecture
 optimization strategy                          : maximize speed(+++)

 *********************** Exchange-Correlation Parameters ***********************
  
 using functional                               : Perdew Burke Ernzerhof
 relativistic treatment                         : Koelling-Harmon
 DFT+D: Semi-empirical dispersion correction    : off

 ************************* Pseudopotential Parameters **************************
  
 pseudopotential representation                 : reciprocal space
 <beta|phi> representation                      : reciprocal space
 spin-orbit coupling                            : off

 **************************** Basis Set Parameters *****************************
  
 plane wave basis set cut-off                   :   650.0000   eV
 size of standard grid                          :     2.0000
 size of   fine   gmax                          :    26.1231   1/A
 finite basis set correction                    : none

 **************************** Electronic Parameters ****************************
  
 number of  electrons                           :  128.0    
 net charge of system                           :  0.000    
 treating system as non-spin-polarized
 number of bands                                :         77

 ********************* Electronic Minimization Parameters **********************
  
 Method: Treating system as metallic with density mixing treatment of electrons,
         and number of  SD  steps               :          1
         and number of  CG  steps               :          4
  
 total energy / atom convergence tol.           : 0.1000E-10   eV
 eigen-energy convergence tolerance             : 0.1000E-10   eV
 max force / atom convergence tol.              : ignored
 convergence tolerance window                   :          3   cycles
 max. number of SCF cycles                      :        100
 number of fixed-spin iterations                :         10
 smearing scheme                                : Gaussian
 smearing width                                 : 0.2000       eV
 Fermi energy convergence tolerance             : 0.2721E-13   eV
 periodic dipole correction                     : NONE

 ************************** Density Mixing Parameters **************************
  
 density-mixing scheme                          : Broyden
 max. length of mixing history                  :         20
 charge density mixing amplitude                : 0.8000    
 cut-off energy for mixing                      :  650.0       eV

 *********************** Population Analysis Parameters ************************
  
 Population analysis with cutoff                :  3.000       A
 Population analysis output                     : summary and pdos components

 ********************** Geometry Optimization Parameters ***********************
  
 optimization method                            : LBFGS
 max. no. of LBFGS updates                      : unbounded
 variable cell method                           : fixed basis quality
 max. number of steps                           :        150
 estimated bulk modulus                         :  500.0       GPa
 estimated <frequency>                          :  1668.       cm-1
 geom line minimiser                            : on
 with line minimiser tolerance                  :     0.4000
 total energy convergence tolerance             : 0.2000E-04   eV/atom
        max ionic |force| tolerance             : 0.1000E-02   eV/A
 max ionic |displacement| tolerance             : 0.1000E-02   A
   max |stress component| tolerance             : 0.1000       GPa
 convergence tolerance window                   :          2   steps
 backup results every                           :       3400   seconds
 write geom trajectory file                     : on

 *******************************************************************************
  
 
                           -------------------------------
                                      Unit Cell
                           -------------------------------
        Real Lattice(A)                      Reciprocal Lattice(1/A)
     5.5707950     0.0000000     0.0000000        1.127879469   0.000000000   0.000000000
     0.0000000    10.2225460     0.0000000        0.000000000   0.614639964   0.000000000
     0.0000000     0.0000000    10.2226340        0.000000000   0.000000000   0.614634673
 
                       Lattice parameters(A)       Cell Angles
                    a =      5.570795          alpha =   90.000000
                    b =     10.222546          beta  =   90.000000
                    c =     10.222634          gamma =   90.000000
 
                       Current cell volume =           582.155577       A**3
                                   density =             1.018756   AMU/A**3
                                           =             1.691685     g/cm^3
 
                           -------------------------------
                                     Cell Contents
                           -------------------------------
                         Total number of ions in cell =   16
                      Total number of species in cell =    2
                        Max number of any one species =   12
 
            xxxxxxxxxxxxxxxxxxxxxxxxxxxxxxxxxxxxxxxxxxxxxxxxxxxxxxxxxxxx
            x  Element    Atom        Fractional coordinates of atoms  x
            x            Number           u          v          w      x
            x----------------------------------------------------------x
            x  P            1         0.000000   0.455759   0.509020   x 
            x  P            2         0.000000   0.044512   0.098415   x 
            x  P            3         0.500000   0.955488   0.598415   x 
            x  P            4         0.500000   0.544241   0.009020   x 
            x  K            1         0.000000   0.127155   0.426884   x 
            x  K            2         0.000000   0.372880   0.180521   x 
            x  K            3         0.000000   0.459892   0.836448   x 
            x  K            4         0.000000   0.716921   0.094011   x 
            x  K            5         0.000000   0.783051   0.513390   x 
            x  K            6         0.000000   0.040036   0.770960   x 
            x  K            7         0.500000   0.959964   0.270960   x 
            x  K            8         0.500000   0.216949   0.013390   x 
            x  K            9         0.500000   0.283079   0.594011   x 
            x  K           10         0.500000   0.540108   0.336448   x 
            x  K           11         0.500000   0.627120   0.680521   x 
            x  K           12         0.500000   0.872845   0.926884   x 
            xxxxxxxxxxxxxxxxxxxxxxxxxxxxxxxxxxxxxxxxxxxxxxxxxxxxxxxxxxxx
 
 
                         No user defined ionic velocities
 
                           -------------------------------
                                   Details of Species
                           -------------------------------
 
                               Mass of species in AMU
                                    P   30.9737600
                                    K   39.0983000
 
                          Electric Quadrupole Moment (Barn)
                                    P    1.0000000 No Isotope Defined
                                    K    0.0585000 Isotope 39
 
                          Files used for pseudopotentials:
                                    P 3|1.8|4|4|5|30:31:32
                                    K 2|1.5|9|10|11|30U:40:31(qc=6)
 
                           -------------------------------
                              k-Points For BZ Sampling
                           -------------------------------
                       MP grid size for SCF calculation is  6  4  4
                            with an offset of   0.000  0.000  0.000
                       Number of kpoints used =            12
 
                           -------------------------------
                               Symmetry and Constraints
                           -------------------------------
 
                      Maximum deviation from symmetry = 0.188002E-14     ANG
 
                      Number of symmetry operations   =           4
                      Number of ionic constraints     =           3
                      Point group of crystal =     6: C2v, mm2, 2 mm
                      Space group of crystal =    31: Pmn2_1, P 2ac -2
 
             Set iprint > 1 for details on symmetry rotations/translations
 
                         Centre of mass is constrained
             Set iprint > 1 for details of linear ionic constraints
 
                         Number of cell constraints= 3
                         Cell constraints are:  1 2 3 0 0 0
 
                         External pressure/stress (GPa)
                          0.00000   0.00000   0.00000
                                    0.00000   0.00000
                                              0.00000
  
+---------------- MEMORY AND SCRATCH DISK ESTIMATES PER PROCESS --------------+
|                                                     Memory          Disk    |
| Baseline code, static data and system overhead      673.0 MB         0.0 MB |
| BLAS internal memory storage                          0.0 MB         0.0 MB |
| Model and support data                              214.2 MB         0.0 MB |
| Electronic energy minimisation requirements          11.5 MB         0.0 MB |
| Force calculation requirements                        2.9 MB         0.0 MB |
|                                               ----------------------------- |
| Approx. total storage required per process          898.7 MB         0.0 MB |
|                                                                             |
| Requirements will fluctuate during execution and may exceed these estimates |
+-----------------------------------------------------------------------------+
Calculating total energy with cut-off of  650.000 eV.
------------------------------------------------------------------------ <-- SCF
SCF loop      Energy           Fermi           Energy gain       Timer   <-- SCF
                               energy          per atom          (sec)   <-- SCF
------------------------------------------------------------------------ <-- SCF
Initial  -9.06333955E+003  0.00000000E+000                        10.27  <-- SCF
      1  -9.91255555E+003  5.62394025E+000   5.30759999E+001      11.01  <-- SCF
      2  -1.03716186E+004  2.78038712E+000   2.86914409E+001      11.52  <-- SCF
      3  -1.03874124E+004  2.51365541E+000   9.87109462E-001      12.10  <-- SCF
      4  -1.03797170E+004  3.66368985E+000  -4.80957781E-001      12.97  <-- SCF
      5  -1.03795115E+004  3.37457387E+000  -1.28428088E-002      13.84  <-- SCF
      6  -1.03794832E+004  3.44594412E+000  -1.77378436E-003      14.65  <-- SCF
      7  -1.03794935E+004  3.45890425E+000   6.44127324E-004      15.41  <-- SCF
      8  -1.03794961E+004  3.47349517E+000   1.65782460E-004      16.39  <-- SCF
      9  -1.03794969E+004  3.47798899E+000   4.56612408E-005      17.14  <-- SCF
     10  -1.03794970E+004  3.48110476E+000   6.37011770E-006      17.96  <-- SCF
     11  -1.03794970E+004  3.48097271E+000   6.98185494E-007      18.99  <-- SCF
     12  -1.03794970E+004  3.48122111E+000   8.05317882E-008      19.82  <-- SCF
     13  -1.03794970E+004  3.48116671E+000   1.27886516E-008      20.81  <-- SCF
     14  -1.03794970E+004  3.48115299E+000   1.20369125E-009      21.62  <-- SCF
     15  -1.03794970E+004  3.48114173E+000   1.69179961E-011      22.24  <-- SCF
     16  -1.03794970E+004  3.48114118E+000   1.15042373E-011      22.79  <-- SCF
     17  -1.03794970E+004  3.48114287E+000   6.47717564E-012      23.31  <-- SCF
     18  -1.03794970E+004  3.48114551E+000   5.02706169E-012      23.82  <-- SCF
     19  -1.03794970E+004  3.48114758E+000   2.22350806E-012      24.37  <-- SCF
------------------------------------------------------------------------ <-- SCF
 
Final energy, E             =  -10379.48904065     eV
Final free energy (E-TS)    =  -10379.49696632     eV
(energies not corrected for finite basis set)
 
NB est. 0K energy (E-0.5TS)      =  -10379.49300348     eV
 

Writing analysis data to KP-yzcni8.castep_bin

Writing model to KP-yzcni8.check

WARNING - doing cell minimisation without finite basis correction:
        => now searching for a stationary and not minimum energy
 
+---------------- MEMORY AND SCRATCH DISK ESTIMATES PER PROCESS --------------+
|                                                     Memory          Disk    |
| Model and support data                              228.8 MB         0.0 MB |
| Electronic energy minimisation requirements          11.5 MB         0.0 MB |
| Geometry minimisation requirements                   12.8 MB         0.0 MB |
|                                               ----------------------------- |
| Approx. total storage required per process          253.1 MB         0.0 MB |
|                                                                             |
| Requirements will fluctuate during execution and may exceed these estimates |
+-----------------------------------------------------------------------------+
 
 
 ******************************** Symmetrised Forces ********************************
 *                                                                                  *
 *                           Cartesian components (eV/A)                            *
 * -------------------------------------------------------------------------------- *
 *                         x                    y                    z              *
 *                                                                                  *
 * P               1     -0.00000             -0.00339             -0.00053         *
 * P               2     -0.00000             -0.00311             -0.00051         *
 * P               3     -0.00000              0.00311             -0.00051         *
 * P               4     -0.00000              0.00339             -0.00053         *
 * K               1      0.00000             -0.00011              0.00024         *
 * K               2      0.00000              0.00039              0.00011         *
 * K               3     -0.00000             -0.00011              0.00040         *
 * K               4      0.00000              0.00020              0.00011         *
 * K               5     -0.00000              0.00047              0.00021         *
 * K               6      0.00000              0.00005             -0.00003         *
 * K               7      0.00000             -0.00005             -0.00003         *
 * K               8     -0.00000             -0.00047              0.00021         *
 * K               9     -0.00000             -0.00020              0.00011         *
 * K              10     -0.00000              0.00011              0.00040         *
 * K              11      0.00000             -0.00039              0.00011         *
 * K              12     -0.00000              0.00011              0.00024         *
 *                                                                                  *
 ************************************************************************************
 
 *********** Symmetrised Stress Tensor ***********
 *                                               *
 *          Cartesian components (GPa)           *
 * --------------------------------------------- *
 *             x             y             z     *
 *                                               *
 *  x      0.000743      0.000000      0.000000  *
 *  y      0.000000      0.001599      0.000000  *
 *  z      0.000000      0.000000      0.002026  *
 *                                               *
 *  Pressure:   -0.0015                          *
 *                                               *
 *************************************************
 LBFGS: finished iteration     0 with enthalpy= -1.03794970E+004 eV
  
 +-----------+-----------------+-----------------+------------+-----+ <-- LBFGS
 | Parameter |      value      |    tolerance    |    units   | OK? | <-- LBFGS
 +-----------+-----------------+-----------------+------------+-----+ <-- LBFGS
 |  dE/ion   |   0.000000E+000 |   2.000000E-005 |         eV | No  | <-- LBFGS
 |  |F|max   |   3.433067E-003 |   1.000000E-003 |       eV/A | No  | <-- LBFGS
 |  |dR|max  |   6.663613E-016 |   1.000000E-003 |          A | No  | <-- LBFGS
 |   Smax    |   2.026039E-003 |   1.000000E-001 |        GPa | Yes | <-- LBFGS
 +-----------+-----------------+-----------------+------------+-----+ <-- LBFGS
  

================================================================================
 Starting LBFGS iteration          1 ...
================================================================================
  
 +------------+-------------+-------------+-----------------+ <-- min LBFGS
 |    Step    |   lambda    |   F.delta'  |    enthalpy     | <-- min LBFGS
 +------------+-------------+-------------+-----------------+ <-- min LBFGS
 |  previous  |    0.000000 |    0.002006 |   -10379.496966 | <-- min LBFGS
 +------------+-------------+-------------+-----------------+ <-- min LBFGS
  

--------------------------------------------------------------------------------
 LBFGS: starting iteration         1 with trial guess (lambda=  1.000000)
--------------------------------------------------------------------------------
 
                           -------------------------------
                                      Unit Cell
                           -------------------------------
        Real Lattice(A)              Reciprocal Lattice(1/A)
     5.5707922     0.0000000     0.0000000        1.127880028   0.000000000   0.000000000
     0.0000000    10.2225351     0.0000000        0.000000000   0.614640619   0.000000000
     0.0000000     0.0000000    10.2226202        0.000000000   0.000000000   0.614635503
 
                       Lattice parameters(A)       Cell Angles
                    a =      5.570792          alpha =   90.000000
                    b =     10.222535          beta  =   90.000000
                    c =     10.222620          gamma =   90.000000
 
                Current cell volume =           582.153882 A**3
                            density =             1.018759 amu/A**3
                                    =             1.691689 g/cm^3
 
                           -------------------------------
                                     Cell Contents
                           -------------------------------
 
            xxxxxxxxxxxxxxxxxxxxxxxxxxxxxxxxxxxxxxxxxxxxxxxxxxxxxxxxxxxxxxxxx
            x  Element         Atom        Fractional coordinates of atoms  x
            x                 Number           u          v          w      x
            x---------------------------------------------------------------x
            x  P                 1         0.000000   0.455758   0.509020   x
            x  P                 2         0.000000   0.044511   0.098415   x
            x  P                 3         0.500000   0.955489   0.598415   x
            x  P                 4         0.500000   0.544242   0.009020   x
            x  K                 1        -0.000000   0.127155   0.426884   x
            x  K                 2         0.000000   0.372880   0.180521   x
            x  K                 3         0.000000   0.459892   0.836448   x
            x  K                 4        -0.000000   0.716921   0.094011   x
            x  K                 5         0.000000   0.783051   0.513390   x
            x  K                 6         0.000000   0.040036   0.770960   x
            x  K                 7         0.500000   0.959964   0.270960   x
            x  K                 8         0.500000   0.216949   0.013390   x
            x  K                 9         0.500000   0.283079   0.594011   x
            x  K                10         0.500000   0.540108   0.336448   x
            x  K                11         0.500000   0.627120   0.680521   x
            x  K                12         0.500000   0.872845   0.926884   x
            xxxxxxxxxxxxxxxxxxxxxxxxxxxxxxxxxxxxxxxxxxxxxxxxxxxxxxxxxxxxxxxxx
 
 
------------------------------------------------------------------------ <-- SCF
SCF loop      Energy           Fermi           Energy gain       Timer   <-- SCF
                               energy          per atom          (sec)   <-- SCF
------------------------------------------------------------------------ <-- SCF
Initial  -1.03794890E+004  0.00000000E+000                        26.87  <-- SCF
      1  -1.03794970E+004  3.48117068E+000   4.95361360E-004      27.44  <-- SCF
      2  -1.03794970E+004  3.48117068E+000   2.08333038E-010      28.15  <-- SCF
      3  -1.03794970E+004  3.48116268E+000  -3.83893500E-009      28.94  <-- SCF
      4  -1.03794970E+004  3.48116556E+000  -8.81669282E-011      29.58  <-- SCF
      5  -1.03794970E+004  3.48116330E+000  -2.39752173E-011      30.09  <-- SCF
      6  -1.03794970E+004  3.48116434E+000  -4.83371317E-012      30.60  <-- SCF
      7  -1.03794970E+004  3.48116419E+000   5.80045580E-013      31.09  <-- SCF
------------------------------------------------------------------------ <-- SCF
 
Final energy, E             =  -10379.48904104     eV
Final free energy (E-TS)    =  -10379.49696645     eV
(energies not corrected for finite basis set)
 
NB est. 0K energy (E-0.5TS)      =  -10379.49300374     eV
 
 
 ******************************** Symmetrised Forces ********************************
 *                                                                                  *
 *                           Cartesian components (eV/A)                            *
 * -------------------------------------------------------------------------------- *
 *                         x                    y                    z              *
 *                                                                                  *
 * P               1      0.00000             -0.00337             -0.00053         *
 * P               2      0.00000             -0.00309             -0.00051         *
 * P               3      0.00000              0.00309             -0.00051         *
 * P               4      0.00000              0.00337             -0.00053         *
 * K               1      0.00000             -0.00011              0.00024         *
 * K               2     -0.00000              0.00038              0.00011         *
 * K               3      0.00000             -0.00011              0.00040         *
 * K               4      0.00000              0.00021              0.00012         *
 * K               5     -0.00000              0.00047              0.00020         *
 * K               6      0.00000              0.00006             -0.00003         *
 * K               7      0.00000             -0.00006             -0.00003         *
 * K               8      0.00000             -0.00047              0.00020         *
 * K               9      0.00000             -0.00021              0.00012         *
 * K              10      0.00000              0.00011              0.00040         *
 * K              11      0.00000             -0.00038              0.00011         *
 * K              12      0.00000              0.00011              0.00024         *
 *                                                                                  *
 ************************************************************************************
 
 *********** Symmetrised Stress Tensor ***********
 *                                               *
 *          Cartesian components (GPa)           *
 * --------------------------------------------- *
 *             x             y             z     *
 *                                               *
 *  x      0.000700      0.000000      0.000000  *
 *  y      0.000000      0.001545      0.000000  *
 *  z      0.000000      0.000000      0.001966  *
 *                                               *
 *  Pressure:   -0.0014                          *
 *                                               *
 *************************************************
  
 +------------+-------------+-------------+-----------------+ <-- min LBFGS
 |    Step    |   lambda    |   F.delta'  |    enthalpy     | <-- min LBFGS
 +------------+-------------+-------------+-----------------+ <-- min LBFGS
 |  previous  |    0.000000 |    0.002006 |   -10379.496966 | <-- min LBFGS
 | trial step |    1.000000 |    0.001989 |   -10379.496966 | <-- min LBFGS
 +------------+-------------+-------------+-----------------+ <-- min LBFGS
  

--------------------------------------------------------------------------------
 LBFGS: improving iteration         1 with line minimization (lambda=115.845972)
--------------------------------------------------------------------------------
 
                           -------------------------------
                                      Unit Cell
                           -------------------------------
        Real Lattice(A)              Reciprocal Lattice(1/A)
     5.5704752     0.0000000     0.0000000        1.127944220   0.000000000   0.000000000
     0.0000000    10.2212837     0.0000000        0.000000000   0.614715870   0.000000000
     0.0000000     0.0000000    10.2210344        0.000000000   0.000000000   0.614730861
 
                       Lattice parameters(A)       Cell Angles
                    a =      5.570475          alpha =   90.000000
                    b =     10.221284          beta  =   90.000000
                    c =     10.221034          gamma =   90.000000
 
                Current cell volume =           581.959202 A**3
                            density =             1.019100 amu/A**3
                                    =             1.692255 g/cm^3
 
                           -------------------------------
                                     Cell Contents
                           -------------------------------
 
            xxxxxxxxxxxxxxxxxxxxxxxxxxxxxxxxxxxxxxxxxxxxxxxxxxxxxxxxxxxxxxxxx
            x  Element         Atom        Fractional coordinates of atoms  x
            x                 Number           u          v          w      x
            x---------------------------------------------------------------x
            x  P                 1         0.000000   0.455658   0.509004   x
            x  P                 2         0.000000   0.044419   0.098400   x
            x  P                 3         0.500000   0.955581   0.598400   x
            x  P                 4         0.500000   0.544342   0.009004   x
            x  K                 1        -0.000000   0.127152   0.426891   x
            x  K                 2         0.000000   0.372892   0.180524   x
            x  K                 3         0.000000   0.459889   0.836460   x
            x  K                 4        -0.000000   0.716927   0.094014   x
            x  K                 5         0.000000   0.783065   0.513396   x
            x  K                 6         0.000000   0.040038   0.770959   x
            x  K                 7         0.500000   0.959962   0.270959   x
            x  K                 8         0.500000   0.216935   0.013396   x
            x  K                 9         0.500000   0.283073   0.594014   x
            x  K                10         0.500000   0.540111   0.336460   x
            x  K                11         0.500000   0.627108   0.680524   x
            x  K                12         0.500000   0.872848   0.926891   x
            xxxxxxxxxxxxxxxxxxxxxxxxxxxxxxxxxxxxxxxxxxxxxxxxxxxxxxxxxxxxxxxxx
 
 
------------------------------------------------------------------------ <-- SCF
SCF loop      Energy           Fermi           Energy gain       Timer   <-- SCF
                               energy          per atom          (sec)   <-- SCF
------------------------------------------------------------------------ <-- SCF
Initial  -1.03794884E+004  0.00000000E+000                        33.19  <-- SCF
      1  -1.03794978E+004  3.48420249E+000   5.87565506E-004      33.76  <-- SCF
      2  -1.03794978E+004  3.48420153E+000   2.89901976E-006      34.70  <-- SCF
      3  -1.03794970E+004  3.48304862E+000  -5.10537467E-005      35.41  <-- SCF
      4  -1.03794970E+004  3.48345251E+000  -1.00384738E-006      36.15  <-- SCF
      5  -1.03794970E+004  3.48319091E+000  -3.33752426E-007      36.97  <-- SCF
      6  -1.03794970E+004  3.48334288E+000  -7.27388758E-008      37.89  <-- SCF
      7  -1.03794970E+004  3.48327204E+000  -1.72975392E-008      38.76  <-- SCF
      8  -1.03794970E+004  3.48327498E+000  -4.76720127E-009      39.54  <-- SCF
      9  -1.03794970E+004  3.48327433E+000  -2.00560427E-009      40.27  <-- SCF
     10  -1.03794970E+004  3.48327258E+000  -7.52125769E-011      40.88  <-- SCF
     11  -1.03794970E+004  3.48327537E+000  -2.91956275E-011      41.46  <-- SCF
     12  -1.03794970E+004  3.48327440E+000   5.89713006E-012      41.97  <-- SCF
     13  -1.03794970E+004  3.48327428E+000   4.73703890E-012      42.49  <-- SCF
     14  -1.03794970E+004  3.48327414E+000   2.90022790E-012      43.01  <-- SCF
------------------------------------------------------------------------ <-- SCF
 
Final energy, E             =  -10379.48906695     eV
Final free energy (E-TS)    =  -10379.49696231     eV
(energies not corrected for finite basis set)
 
NB est. 0K energy (E-0.5TS)      =  -10379.49301463     eV
 
 
 ******************************** Symmetrised Forces ********************************
 *                                                                                  *
 *                           Cartesian components (eV/A)                            *
 * -------------------------------------------------------------------------------- *
 *                         x                    y                    z              *
 *                                                                                  *
 * P               1     -0.00000             -0.00095             -0.00030         *
 * P               2     -0.00000             -0.00073             -0.00028         *
 * P               3     -0.00000              0.00073             -0.00028         *
 * P               4      0.00000              0.00095             -0.00030         *
 * K               1     -0.00000             -0.00033              0.00012         *
 * K               2     -0.00000              0.00001              0.00015         *
 * K               3     -0.00000             -0.00014              0.00013         *
 * K               4     -0.00000              0.00017              0.00024         *
 * K               5     -0.00000              0.00013             -0.00003         *
 * K               6     -0.00000              0.00037             -0.00003         *
 * K               7     -0.00000             -0.00037             -0.00003         *
 * K               8      0.00000             -0.00013             -0.00003         *
 * K               9     -0.00000             -0.00017              0.00024         *
 * K              10     -0.00000              0.00014              0.00013         *
 * K              11     -0.00000             -0.00001              0.00015         *
 * K              12     -0.00000              0.00033              0.00012         *
 *                                                                                  *
 ************************************************************************************
 
 *********** Symmetrised Stress Tensor ***********
 *                                               *
 *          Cartesian components (GPa)           *
 * --------------------------------------------- *
 *             x             y             z     *
 *                                               *
 *  x     -0.003067      0.000000      0.000000  *
 *  y      0.000000     -0.003082      0.000000  *
 *  z      0.000000      0.000000     -0.003372  *
 *                                               *
 *  Pressure:    0.0032                          *
 *                                               *
 *************************************************
  
 +------------+-------------+-------------+-----------------+ <-- min LBFGS
 |    Step    |   lambda    |   F.delta'  |    enthalpy     | <-- min LBFGS
 +------------+-------------+-------------+-----------------+ <-- min LBFGS
 |  previous  |    0.000000 |    0.002006 |   -10379.496966 | <-- min LBFGS
 | trial step |    1.000000 |    0.001989 |   -10379.496966 | <-- min LBFGS
 |  line step |  115.845972 |   -0.000029 |   -10379.496962 | <-- min LBFGS
 +------------+-------------+-------------+-----------------+ <-- min LBFGS
  
 LBFGS: finished iteration     1 with enthalpy= -1.03794970E+004 eV
  
 +-----------+-----------------+-----------------+------------+-----+ <-- LBFGS
 | Parameter |      value      |    tolerance    |    units   | OK? | <-- LBFGS
 +-----------+-----------------+-----------------+------------+-----+ <-- LBFGS
 |  dE/ion   |   2.501788E-007 |   2.000000E-005 |         eV | Yes | <-- LBFGS
 |  |F|max   |   9.923042E-004 |   1.000000E-003 |       eV/A | Yes | <-- LBFGS
 |  |dR|max  |   1.048773E-003 |   1.000000E-003 |          A | No  | <-- LBFGS
 |   Smax    |   3.372117E-003 |   1.000000E-001 |        GPa | Yes | <-- LBFGS
 +-----------+-----------------+-----------------+------------+-----+ <-- LBFGS
  

================================================================================
 Starting LBFGS iteration          2 ...
================================================================================
  
 +------------+-------------+-------------+-----------------+ <-- min LBFGS
 |    Step    |   lambda    |   F.delta'  |    enthalpy     | <-- min LBFGS
 +------------+-------------+-------------+-----------------+ <-- min LBFGS
 |  previous  |    0.000000 |    0.000560 |   -10379.496962 | <-- min LBFGS
 +------------+-------------+-------------+-----------------+ <-- min LBFGS
  

--------------------------------------------------------------------------------
 LBFGS: starting iteration         2 with trial guess (lambda=  1.000000)
--------------------------------------------------------------------------------
 
                           -------------------------------
                                      Unit Cell
                           -------------------------------
        Real Lattice(A)              Reciprocal Lattice(1/A)
     5.5704893     0.0000000     0.0000000        1.127941371   0.000000000   0.000000000
     0.0000000    10.2213157     0.0000000        0.000000000   0.614713949   0.000000000
     0.0000000     0.0000000    10.2210713        0.000000000   0.000000000   0.614728642
 
                       Lattice parameters(A)       Cell Angles
                    a =      5.570489          alpha =   90.000000
                    b =     10.221316          beta  =   90.000000
                    c =     10.221071          gamma =   90.000000
 
                Current cell volume =           581.964593 A**3
                            density =             1.019091 amu/A**3
                                    =             1.692240 g/cm^3
 
                           -------------------------------
                                     Cell Contents
                           -------------------------------
 
            xxxxxxxxxxxxxxxxxxxxxxxxxxxxxxxxxxxxxxxxxxxxxxxxxxxxxxxxxxxxxxxxx
            x  Element         Atom        Fractional coordinates of atoms  x
            x                 Number           u          v          w      x
            x---------------------------------------------------------------x
            x  P                 1         0.000000   0.455658   0.509004   x
            x  P                 2         0.000000   0.044420   0.098400   x
            x  P                 3         0.500000   0.955580   0.598400   x
            x  P                 4         0.500000   0.544342   0.009004   x
            x  K                 1        -0.000000   0.127152   0.426891   x
            x  K                 2         0.000000   0.372892   0.180524   x
            x  K                 3         0.000000   0.459889   0.836460   x
            x  K                 4        -0.000000   0.716927   0.094014   x
            x  K                 5         0.000000   0.783065   0.513396   x
            x  K                 6         0.000000   0.040038   0.770959   x
            x  K                 7         0.500000   0.959962   0.270959   x
            x  K                 8         0.500000   0.216935   0.013396   x
            x  K                 9         0.500000   0.283073   0.594014   x
            x  K                10         0.500000   0.540111   0.336460   x
            x  K                11         0.500000   0.627108   0.680524   x
            x  K                12         0.500000   0.872848   0.926891   x
            xxxxxxxxxxxxxxxxxxxxxxxxxxxxxxxxxxxxxxxxxxxxxxxxxxxxxxxxxxxxxxxxx
 
 
------------------------------------------------------------------------ <-- SCF
SCF loop      Energy           Fermi           Energy gain       Timer   <-- SCF
                               energy          per atom          (sec)   <-- SCF
------------------------------------------------------------------------ <-- SCF
Initial  -1.03794891E+004  0.00000000E+000                        44.66  <-- SCF
      1  -1.03794970E+004  3.48319033E+000   4.93498473E-004      45.22  <-- SCF
      2  -1.03794970E+004  3.48319033E+000   2.68754452E-010      46.09  <-- SCF
      3  -1.03794970E+004  3.48321988E+000  -6.00704870E-009      46.79  <-- SCF
      4  -1.03794970E+004  3.48321096E+000  -2.63920739E-011      47.42  <-- SCF
      5  -1.03794970E+004  3.48321613E+000  -8.50733517E-012      47.92  <-- SCF
      6  -1.03794970E+004  3.48321560E+000  -1.16009116E-012      48.41  <-- SCF
------------------------------------------------------------------------ <-- SCF
 
Final energy, E             =  -10379.48906665     eV
Final free energy (E-TS)    =  -10379.49696278     eV
(energies not corrected for finite basis set)
 
NB est. 0K energy (E-0.5TS)      =  -10379.49301472     eV
 
 
 ******************************** Symmetrised Forces ********************************
 *                                                                                  *
 *                           Cartesian components (eV/A)                            *
 * -------------------------------------------------------------------------------- *
 *                         x                    y                    z              *
 *                                                                                  *
 * P               1     -0.00000             -0.00095             -0.00030         *
 * P               2     -0.00000             -0.00074             -0.00028         *
 * P               3     -0.00000              0.00074             -0.00028         *
 * P               4     -0.00000              0.00095             -0.00030         *
 * K               1     -0.00000             -0.00031              0.00012         *
 * K               2     -0.00000              0.00004              0.00014         *
 * K               3     -0.00000             -0.00014              0.00014         *
 * K               4      0.00000              0.00016              0.00023         *
 * K               5     -0.00000              0.00013             -0.00001         *
 * K               6     -0.00000              0.00037             -0.00003         *
 * K               7     -0.00000             -0.00037             -0.00003         *
 * K               8     -0.00000             -0.00013             -0.00001         *
 * K               9     -0.00000             -0.00016              0.00023         *
 * K              10     -0.00000              0.00014              0.00014         *
 * K              11     -0.00000             -0.00004              0.00014         *
 * K              12      0.00000              0.00031              0.00012         *
 *                                                                                  *
 ************************************************************************************
 
 *********** Symmetrised Stress Tensor ***********
 *                                               *
 *          Cartesian components (GPa)           *
 * --------------------------------------------- *
 *             x             y             z     *
 *                                               *
 *  x     -0.002929      0.000000      0.000000  *
 *  y      0.000000     -0.002949      0.000000  *
 *  z      0.000000      0.000000     -0.003229  *
 *                                               *
 *  Pressure:    0.0030                          *
 *                                               *
 *************************************************
  
 +------------+-------------+-------------+-----------------+ <-- min LBFGS
 |    Step    |   lambda    |   F.delta'  |    enthalpy     | <-- min LBFGS
 +------------+-------------+-------------+-----------------+ <-- min LBFGS
 |  previous  |    0.000000 |    0.000560 |   -10379.496962 | <-- min LBFGS
 | trial step |    1.000000 |    0.000527 |   -10379.496963 | <-- min LBFGS
 +------------+-------------+-------------+-----------------+ <-- min LBFGS
  

--------------------------------------------------------------------------------
 LBFGS: improving iteration         2 with line minimization (lambda= 16.888004)
--------------------------------------------------------------------------------
 
                           -------------------------------
                                      Unit Cell
                           -------------------------------
        Real Lattice(A)              Reciprocal Lattice(1/A)
     5.5707129     0.0000000     0.0000000        1.127896094   0.000000000   0.000000000
     0.0000000    10.2218232     0.0000000        0.000000000   0.614683424   0.000000000
     0.0000000     0.0000000    10.2216576        0.000000000   0.000000000   0.614693386
 
                       Lattice parameters(A)       Cell Angles
                    a =      5.570713          alpha =   90.000000
                    b =     10.221823          beta  =   90.000000
                    c =     10.221658          gamma =   90.000000
 
                Current cell volume =           582.050237 A**3
                            density =             1.018941 amu/A**3
                                    =             1.691991 g/cm^3
 
                           -------------------------------
                                     Cell Contents
                           -------------------------------
 
            xxxxxxxxxxxxxxxxxxxxxxxxxxxxxxxxxxxxxxxxxxxxxxxxxxxxxxxxxxxxxxxxx
            x  Element         Atom        Fractional coordinates of atoms  x
            x                 Number           u          v          w      x
            x---------------------------------------------------------------x
            x  P                 1         0.000000   0.455669   0.509005   x
            x  P                 2         0.000000   0.044430   0.098401   x
            x  P                 3         0.500000   0.955570   0.598401   x
            x  P                 4         0.500000   0.544331   0.009005   x
            x  K                 1        -0.000000   0.127151   0.426890   x
            x  K                 2         0.000000   0.372890   0.180524   x
            x  K                 3         0.000000   0.459889   0.836459   x
            x  K                 4        -0.000000   0.716927   0.094015   x
            x  K                 5        -0.000000   0.783063   0.513395   x
            x  K                 6         0.000000   0.040039   0.770959   x
            x  K                 7         0.500000   0.959961   0.270959   x
            x  K                 8         0.500000   0.216937   0.013395   x
            x  K                 9         0.500000   0.283073   0.594015   x
            x  K                10         0.500000   0.540111   0.336459   x
            x  K                11         0.500000   0.627110   0.680524   x
            x  K                12         0.500000   0.872849   0.926890   x
            xxxxxxxxxxxxxxxxxxxxxxxxxxxxxxxxxxxxxxxxxxxxxxxxxxxxxxxxxxxxxxxxx
 
 
------------------------------------------------------------------------ <-- SCF
SCF loop      Energy           Fermi           Energy gain       Timer   <-- SCF
                               energy          per atom          (sec)   <-- SCF
------------------------------------------------------------------------ <-- SCF
Initial  -1.03794890E+004  0.00000000E+000                        50.04  <-- SCF
      1  -1.03794970E+004  3.48188086E+000   4.97426527E-004      50.57  <-- SCF
      2  -1.03794970E+004  3.48188085E+000   6.84610397E-008      51.52  <-- SCF
      3  -1.03794970E+004  3.48235544E+000  -1.52144312E-006      52.19  <-- SCF
      4  -1.03794970E+004  3.48221242E+000  -1.76527205E-010      53.10  <-- SCF
      5  -1.03794970E+004  3.48228735E+000  -5.04446306E-009      53.95  <-- SCF
      6  -1.03794970E+004  3.48227711E+000  -9.47697804E-010      54.67  <-- SCF
      7  -1.03794970E+004  3.48228579E+000  -2.23510897E-010      55.36  <-- SCF
      8  -1.03794970E+004  3.48228283E+000  -5.64577698E-011      55.92  <-- SCF
      9  -1.03794970E+004  3.48228352E+000  -4.54369038E-012      56.44  <-- SCF
     10  -1.03794970E+004  3.48228391E+000   1.16009116E-012      56.96  <-- SCF
     11  -1.03794970E+004  3.48228416E+000   2.32018232E-012      57.47  <-- SCF
------------------------------------------------------------------------ <-- SCF
 
Final energy, E             =  -10379.48906163     eV
Final free energy (E-TS)    =  -10379.49696955     eV
(energies not corrected for finite basis set)
 
NB est. 0K energy (E-0.5TS)      =  -10379.49301559     eV
 
 
 ******************************** Symmetrised Forces ********************************
 *                                                                                  *
 *                           Cartesian components (eV/A)                            *
 * -------------------------------------------------------------------------------- *
 *                         x                    y                    z              *
 *                                                                                  *
 * P               1     -0.00000             -0.00122             -0.00031         *
 * P               2     -0.00000             -0.00102             -0.00031         *
 * P               3     -0.00000              0.00102             -0.00031         *
 * P               4     -0.00000              0.00122             -0.00031         *
 * K               1     -0.00000             -0.00024              0.00011         *
 * K               2      0.00000              0.00008              0.00016         *
 * K               3     -0.00000             -0.00006              0.00017         *
 * K               4     -0.00000              0.00017              0.00013         *
 * K               5     -0.00000              0.00016              0.00009         *
 * K               6     -0.00000              0.00025             -0.00004         *
 * K               7     -0.00000             -0.00025             -0.00004         *
 * K               8      0.00000             -0.00016              0.00009         *
 * K               9     -0.00000             -0.00017              0.00013         *
 * K              10     -0.00000              0.00006              0.00017         *
 * K              11     -0.00000             -0.00008              0.00016         *
 * K              12     -0.00000              0.00024              0.00011         *
 *                                                                                  *
 ************************************************************************************
 
 *********** Symmetrised Stress Tensor ***********
 *                                               *
 *          Cartesian components (GPa)           *
 * --------------------------------------------- *
 *             x             y             z     *
 *                                               *
 *  x     -0.000921      0.000000      0.000000  *
 *  y      0.000000     -0.000968      0.000000  *
 *  z      0.000000      0.000000     -0.001072  *
 *                                               *
 *  Pressure:    0.0010                          *
 *                                               *
 *************************************************
  
 +------------+-------------+-------------+-----------------+ <-- min LBFGS
 |    Step    |   lambda    |   F.delta'  |    enthalpy     | <-- min LBFGS
 +------------+-------------+-------------+-----------------+ <-- min LBFGS
 |  previous  |    0.000000 |    0.000560 |   -10379.496962 | <-- min LBFGS
 | trial step |    1.000000 |    0.000527 |   -10379.496963 | <-- min LBFGS
 |  line step |   16.888004 |    0.000018 |   -10379.496970 | <-- min LBFGS
 +------------+-------------+-------------+-----------------+ <-- min LBFGS
  
 LBFGS: finished iteration     2 with enthalpy= -1.03794970E+004 eV
  
 +-----------+-----------------+-----------------+------------+-----+ <-- LBFGS
 | Parameter |      value      |    tolerance    |    units   | OK? | <-- LBFGS
 +-----------+-----------------+-----------------+------------+-----+ <-- LBFGS
 |  dE/ion   |   4.524994E-007 |   2.000000E-005 |         eV | Yes | <-- LBFGS
 |  |F|max   |   1.253365E-003 |   1.000000E-003 |       eV/A | No  | <-- LBFGS
 |  |dR|max  |   1.148827E-004 |   1.000000E-003 |          A | Yes | <-- LBFGS
 |   Smax    |   1.072184E-003 |   1.000000E-001 |        GPa | Yes | <-- LBFGS
 +-----------+-----------------+-----------------+------------+-----+ <-- LBFGS
  

================================================================================
 Starting LBFGS iteration          3 ...
================================================================================
  
 +------------+-------------+-------------+-----------------+ <-- min LBFGS
 |    Step    |   lambda    |   F.delta'  |    enthalpy     | <-- min LBFGS
 +------------+-------------+-------------+-----------------+ <-- min LBFGS
 |  previous  |    0.000000 |    0.000887 |   -10379.496970 | <-- min LBFGS
 +------------+-------------+-------------+-----------------+ <-- min LBFGS
  

--------------------------------------------------------------------------------
 LBFGS: starting iteration         3 with trial guess (lambda=  1.000000)
--------------------------------------------------------------------------------
 
                           -------------------------------
                                      Unit Cell
                           -------------------------------
        Real Lattice(A)              Reciprocal Lattice(1/A)
     5.5708027     0.0000000     0.0000000        1.127877913   0.000000000   0.000000000
     0.0000000    10.2218984     0.0000000        0.000000000   0.614678905   0.000000000
     0.0000000     0.0000000    10.2217104        0.000000000   0.000000000   0.614690210
 
                       Lattice parameters(A)       Cell Angles
                    a =      5.570803          alpha =   90.000000
                    b =     10.221898          beta  =   90.000000
                    c =     10.221710          gamma =   90.000000
 
                Current cell volume =           582.066906 A**3
                            density =             1.018911 amu/A**3
                                    =             1.691942 g/cm^3
 
                           -------------------------------
                                     Cell Contents
                           -------------------------------
 
            xxxxxxxxxxxxxxxxxxxxxxxxxxxxxxxxxxxxxxxxxxxxxxxxxxxxxxxxxxxxxxxxx
            x  Element         Atom        Fractional coordinates of atoms  x
            x                 Number           u          v          w      x
            x---------------------------------------------------------------x
            x  P                 1         0.000000   0.455652   0.509002   x
            x  P                 2         0.000000   0.044415   0.098398   x
            x  P                 3         0.500000   0.955585   0.598398   x
            x  P                 4         0.500000   0.544348   0.009002   x
            x  K                 1        -0.000000   0.127149   0.426892   x
            x  K                 2         0.000000   0.372892   0.180525   x
            x  K                 3         0.000000   0.459888   0.836461   x
            x  K                 4        -0.000000   0.716928   0.094016   x
            x  K                 5        -0.000000   0.783066   0.513396   x
            x  K                 6         0.000000   0.040040   0.770959   x
            x  K                 7         0.500000   0.959960   0.270959   x
            x  K                 8         0.500000   0.216934   0.013396   x
            x  K                 9         0.500000   0.283072   0.594016   x
            x  K                10         0.500000   0.540112   0.336461   x
            x  K                11         0.500000   0.627108   0.680525   x
            x  K                12         0.500000   0.872851   0.926892   x
            xxxxxxxxxxxxxxxxxxxxxxxxxxxxxxxxxxxxxxxxxxxxxxxxxxxxxxxxxxxxxxxxx
 
 
------------------------------------------------------------------------ <-- SCF
SCF loop      Energy           Fermi           Energy gain       Timer   <-- SCF
                               energy          per atom          (sec)   <-- SCF
------------------------------------------------------------------------ <-- SCF
Initial  -1.03794890E+004  0.00000000E+000                        59.09  <-- SCF
      1  -1.03794970E+004  3.48202027E+000   4.96684260E-004      59.67  <-- SCF
      2  -1.03794970E+004  3.48202024E+000   8.18159124E-008      60.57  <-- SCF
      3  -1.03794970E+004  3.48209873E+000  -1.36981321E-006      61.34  <-- SCF
      4  -1.03794970E+004  3.48208073E+000  -4.11092804E-008      62.09  <-- SCF
      5  -1.03794970E+004  3.48210112E+000  -1.10140021E-008      62.86  <-- SCF
      6  -1.03794970E+004  3.48209227E+000  -3.11397470E-009      63.59  <-- SCF
      7  -1.03794970E+004  3.48210089E+000  -7.16066269E-010      64.23  <-- SCF
      8  -1.03794970E+004  3.48210164E+000  -1.24516451E-010      64.83  <-- SCF
      9  -1.03794970E+004  3.48210038E+000  -6.94121211E-011      65.41  <-- SCF
     10  -1.03794970E+004  3.48210143E+000  -3.77029627E-012      65.93  <-- SCF
     11  -1.03794970E+004  3.48210101E+000   5.31708448E-012      66.43  <-- SCF
------------------------------------------------------------------------ <-- SCF
 
Final energy, E             =  -10379.48906160     eV
Final free energy (E-TS)    =  -10379.49697104     eV
(energies not corrected for finite basis set)
 
NB est. 0K energy (E-0.5TS)      =  -10379.49301632     eV
 
 
 ******************************** Symmetrised Forces ********************************
 *                                                                                  *
 *                           Cartesian components (eV/A)                            *
 * -------------------------------------------------------------------------------- *
 *                         x                    y                    z              *
 *                                                                                  *
 * P               1     -0.00000             -0.00081             -0.00023         *
 * P               2     -0.00000             -0.00064             -0.00027         *
 * P               3     -0.00000              0.00064             -0.00027         *
 * P               4     -0.00000              0.00081             -0.00023         *
 * K               1      0.00000             -0.00026              0.00005         *
 * K               2      0.00000             -0.00006              0.00017         *
 * K               3     -0.00000             -0.00001              0.00010         *
 * K               4     -0.00000              0.00017              0.00010         *
 * K               5     -0.00000              0.00006              0.00010         *
 * K               6     -0.00000              0.00023             -0.00001         *
 * K               7     -0.00000             -0.00023             -0.00001         *
 * K               8     -0.00000             -0.00006              0.00010         *
 * K               9     -0.00000             -0.00017              0.00010         *
 * K              10     -0.00000              0.00001              0.00010         *
 * K              11     -0.00000              0.00006              0.00017         *
 * K              12     -0.00000              0.00026              0.00005         *
 *                                                                                  *
 ************************************************************************************
 
 *********** Symmetrised Stress Tensor ***********
 *                                               *
 *          Cartesian components (GPa)           *
 * --------------------------------------------- *
 *             x             y             z     *
 *                                               *
 *  x     -0.000315      0.000000      0.000000  *
 *  y      0.000000     -0.000593      0.000000  *
 *  z      0.000000      0.000000     -0.000739  *
 *                                               *
 *  Pressure:    0.0005                          *
 *                                               *
 *************************************************
  
 +------------+-------------+-------------+-----------------+ <-- min LBFGS
 |    Step    |   lambda    |   F.delta'  |    enthalpy     | <-- min LBFGS
 +------------+-------------+-------------+-----------------+ <-- min LBFGS
 |  previous  |    0.000000 |    0.000887 |   -10379.496970 | <-- min LBFGS
 | trial step |    1.000000 |    0.000567 |   -10379.496971 | <-- min LBFGS
 +------------+-------------+-------------+-----------------+ <-- min LBFGS
  
 LBFGS: finished iteration     3 with enthalpy= -1.03794970E+004 eV
  
 +-----------+-----------------+-----------------+------------+-----+ <-- LBFGS
 | Parameter |      value      |    tolerance    |    units   | OK? | <-- LBFGS
 +-----------+-----------------+-----------------+------------+-----+ <-- LBFGS
 |  dE/ion   |   9.295443E-008 |   2.000000E-005 |         eV | Yes | <-- LBFGS
 |  |F|max   |   8.427089E-004 |   1.000000E-003 |       eV/A | Yes | <-- LBFGS
 |  |dR|max  |   1.744140E-004 |   1.000000E-003 |          A | Yes | <-- LBFGS
 |   Smax    |   7.389737E-004 |   1.000000E-001 |        GPa | Yes | <-- LBFGS
 +-----------+-----------------+-----------------+------------+-----+ <-- LBFGS
  
 LBFGS: Geometry optimization completed successfully.

================================================================================
 LBFGS: Final Configuration:
================================================================================
 
                           -------------------------------
                                      Unit Cell
                           -------------------------------
        Real Lattice(A)              Reciprocal Lattice(1/A)
     5.5708027     0.0000000     0.0000000        1.127877913   0.000000000   0.000000000
     0.0000000    10.2218984     0.0000000        0.000000000   0.614678905   0.000000000
     0.0000000     0.0000000    10.2217104        0.000000000   0.000000000   0.614690210
 
                       Lattice parameters(A)       Cell Angles
                    a =      5.570803          alpha =   90.000000
                    b =     10.221898          beta  =   90.000000
                    c =     10.221710          gamma =   90.000000
 
                Current cell volume =           582.066906 A**3
                            density =             1.018911 amu/A**3
                                    =             1.691942 g/cm^3
 
                           -------------------------------
                                     Cell Contents
                           -------------------------------
 
            xxxxxxxxxxxxxxxxxxxxxxxxxxxxxxxxxxxxxxxxxxxxxxxxxxxxxxxxxxxxxxxxx
            x  Element         Atom        Fractional coordinates of atoms  x
            x                 Number           u          v          w      x
            x---------------------------------------------------------------x
            x  P                 1         0.000000   0.455652   0.509002   x
            x  P                 2         0.000000   0.044415   0.098398   x
            x  P                 3         0.500000   0.955585   0.598398   x
            x  P                 4         0.500000   0.544348   0.009002   x
            x  K                 1         0.000000   0.127149   0.426892   x
            x  K                 2         0.000000   0.372892   0.180525   x
            x  K                 3         0.000000   0.459888   0.836461   x
            x  K                 4         0.000000   0.716928   0.094016   x
            x  K                 5         0.000000   0.783066   0.513396   x
            x  K                 6         0.000000   0.040040   0.770959   x
            x  K                 7         0.500000   0.959960   0.270959   x
            x  K                 8         0.500000   0.216934   0.013396   x
            x  K                 9         0.500000   0.283072   0.594016   x
            x  K                10         0.500000   0.540112   0.336461   x
            x  K                11         0.500000   0.627108   0.680525   x
            x  K                12         0.500000   0.872851   0.926892   x
            xxxxxxxxxxxxxxxxxxxxxxxxxxxxxxxxxxxxxxxxxxxxxxxxxxxxxxxxxxxxxxxxx
 
 
 LBFGS: Final Enthalpy     = -1.03794970E+004 eV
 LBFGS: Final <frequency>  =     972.84163 cm-1
 LBFGS: Final bulk modulus =      15.07452 GPa
  
  **********************************************************
  *** There were at least     1 warnings during this run ***
  *** => please check the whole of this file carefully!  ***
  **********************************************************
 
 ******************************** Symmetrised Forces ********************************
 *                                                                                  *
 *                           Cartesian components (eV/A)                            *
 * -------------------------------------------------------------------------------- *
 *                         x                    y                    z              *
 *                                                                                  *
 * P               1     -0.00000             -0.00081             -0.00023         *
 * P               2     -0.00000             -0.00064             -0.00027         *
 * P               3     -0.00000              0.00064             -0.00027         *
 * P               4     -0.00000              0.00081             -0.00023         *
 * K               1      0.00000             -0.00026              0.00005         *
 * K               2      0.00000             -0.00006              0.00017         *
 * K               3     -0.00000             -0.00001              0.00010         *
 * K               4     -0.00000              0.00017              0.00010         *
 * K               5     -0.00000              0.00006              0.00010         *
 * K               6     -0.00000              0.00023             -0.00001         *
 * K               7     -0.00000             -0.00023             -0.00001         *
 * K               8     -0.00000             -0.00006              0.00010         *
 * K               9     -0.00000             -0.00017              0.00010         *
 * K              10     -0.00000              0.00001              0.00010         *
 * K              11     -0.00000              0.00006              0.00017         *
 * K              12     -0.00000              0.00026              0.00005         *
 *                                                                                  *
 ************************************************************************************
 
 *********** Symmetrised Stress Tensor ***********
 *                                               *
 *          Cartesian components (GPa)           *
 * --------------------------------------------- *
 *             x             y             z     *
 *                                               *
 *  x     -0.000315      0.000000      0.000000  *
 *  y      0.000000     -0.000593      0.000000  *
 *  z      0.000000      0.000000     -0.000739  *
 *                                               *
 *  Pressure:    0.0005                          *
 *                                               *
 *************************************************
 
 Pseudo atomic calculation performed for P 3s2 3p3
 
 Converged in 33 iterations to a total energy of -214.2223 eV
 
 Pseudo atomic calculation performed for K 3s2 3p6 4s1
 
 Converged in 39 iterations to a total energy of -790.3776 eV
Charge spilling parameter for spin component 1 = 0.31%
 
            Orbital Populations       
     Ion    Atom   Orbital             Charge
  -------------------------------------------
      P     1      S                    1.780
      P     1      Px                   1.397
      P     1      Py                   1.330
      P     1      Pz                   1.329
      P     2      S                    1.780
      P     2      Px                   1.398
      P     2      Py                   1.329
      P     2      Pz                   1.328
      P     3      S                    1.778
      P     3      Px                   1.396
      P     3      Py                   1.328
      P     3      Pz                   1.328
      P     4      S                    1.778
      P     4      Px                   1.397
      P     4      Py                   1.328
      P     4      Pz                   1.328
      K     1      S                    2.006
      K     1      Px                   2.014
      K     1      Py                   2.012
      K     1      Pz                   2.013
      K     1      S                    0.384
      K     1      Px                   0.132
      K     1      Py                   0.138
      K     1      Pz                   0.137
      K     2      S                    2.006
      K     2      Px                   2.014
      K     2      Py                   2.013
      K     2      Pz                   2.013
      K     2      S                    0.384
      K     2      Px                   0.132
      K     2      Py                   0.138
      K     2      Pz                   0.137
      K     3      S                    2.007
      K     3      Px                   2.010
      K     3      Py                   2.013
      K     3      Pz                   2.010
      K     3      S                    0.292
      K     3      Px                   0.182
      K     3      Py                   0.007
      K     3      Pz                   0.152
      K     4      S                    2.007
      K     4      Px                   2.010
      K     4      Py                   2.010
      K     4      Pz                   2.013
      K     4      S                    0.293
      K     4      Px                   0.181
      K     4      Py                   0.152
      K     4      Pz                   0.007
      K     5      S                    2.007
      K     5      Px                   2.010
      K     5      Py                   2.010
      K     5      Pz                   2.013
      K     5      S                    0.293
      K     5      Px                   0.181
      K     5      Py                   0.151
      K     5      Pz                   0.007
      K     6      S                    2.007
      K     6      Px                   2.010
      K     6      Py                   2.013
      K     6      Pz                   2.010
      K     6      S                    0.293
      K     6      Px                   0.182
      K     6      Py                   0.007
      K     6      Pz                   0.152
      K     7      S                    2.007
      K     7      Px                   2.010
      K     7      Py                   2.013
[...]
 + -------------------------------------------------------------------------- +
 +  Acoustic sum rule correction <   0.037547 cm-1 applied                    +
 +     N      Frequency irrep.                                                + 
 +                (cm-1)                                                      + 
 +                                                                            +
 +     1      40.136404   a                                                   + 
 +     2      40.136404   a                                                   + 
 +     3      41.745270   a                                                   + 
 +     4      41.745270   a                                                   + 
 +     5      47.579069   a                                                   + 
 +     6      47.579069   a                                                   + 
 +     7      54.878620   a                                                   + 
 +     8      54.878620   a                                                   + 
 +     9      63.251422   a                                                   + 
 +    10      63.251422   a                                                   + 
 +    11      64.392456   a                                                   + 
 +    12      64.392456   a                                                   + 
 +    13      69.470698   a                                                   + 
 +    14      69.470698   a                                                   + 
 +    15      78.855657   a                                                   + 
 +    16      78.855657   a                                                   + 
 +    17      86.512885   a                                                   + 
 +    18      86.512885   a                                                   + 
 +    19      90.839347   a                                                   + 
 +    20      90.839347   a                                                   + 
 +    21     104.512331   a                                                   + 
 +    22     104.512331   a                                                   + 
 +    23     106.827723   a                                                   + 
 +    24     106.827723   a                                                   + 
 +    25     110.705224   a                                                   + 
 +    26     110.705224   a                                                   + 
 +    27     114.878510   a                                                   + 
 +    28     114.878510   a                                                   + 
 +    29     119.746744   a                                                   + 
 +    30     119.746744   a                                                   + 
 +    31     120.180379   a                                                   + 
 +    32     120.180379   a                                                   + 
 +    33     123.502737   a                                                   + 
 +    34     123.502737   a                                                   + 
 +    35     124.545975   a                                                   + 
 +    36     124.545975   a                                                   + 
 +    37     141.766847   a                                                   + 
 +    38     141.766847   a                                                   + 
 +    39     143.028803   a                                                   + 
 +    40     143.028803   a                                                   + 
 +    41     149.597070   a                                                   + 
 +    42     149.597070   a                                                   + 
 +    43     150.651611   a                                                   + 
 +    44     150.651611   a                                                   + 
 +    45     166.822799   a                                                   + 
 +    46     166.822799   a                                                   + 
 +    47     168.735518   a                                                   + 
 +    48     168.735518   a                                                   + 
 + .......................................................................... +
 +        Character table from group theory analysis of eigenvectors          +
 +                           Point Group =   6, C2v                           +
 + .......................................................................... +
 +  Rep  Mul |    E   2   m   m                                               +
 +           | ----------------                                               +
 + a      24 |    2   0   0   0                                               +
 + -------------------------------------------------------------------------- +
 +  q-pt=  224 (  0.500000  0.500000  0.500000)     0.0044642857              +
 + -------------------------------------------------------------------------- +
 +  Acoustic sum rule correction <   0.038328 cm-1 applied                    +
 +     N      Frequency irrep.                                                + 
 +                (cm-1)                                                      + 
 +                                                                            +
 +     1      40.389476   a                                                   + 
 +     2      40.389476   a                                                   + 
 +     3      41.932977   a                                                   + 
 +     4      41.932977   a                                                   + 
 +     5      47.399247   a                                                   + 
 +     6      47.399247   a                                                   + 
 +     7      54.681485   a                                                   + 
 +     8      54.681485   a                                                   + 
 +     9      63.352735   a                                                   + 
 +    10      63.352735   a                                                   + 
 +    11      64.289229   a                                                   + 
 +    12      64.289229   a                                                   + 
 +    13      69.497019   a                                                   + 
 +    14      69.497019   a                                                   + 
 +    15      78.921591   a                                                   + 
 +    16      78.921591   a                                                   + 
 +    17      86.480919   a                                                   + 
 +    18      86.480919   a                                                   + 
 +    19      90.808760   a                                                   + 
 +    20      90.808760   a                                                   + 
 +    21     104.669336   a                                                   + 
 +    22     104.669336   a                                                   + 
 +    23     106.783038   a                                                   + 
 +    24     106.783038   a                                                   + 
 +    25     110.646926   a                                                   + 
 +    26     110.646926   a                                                   + 
 +    27     114.929297   a                                                   + 
 +    28     114.929297   a                                                   + 
 +    29     119.782567   a                                                   + 
 +    30     119.782567   a                                                   + 
 +    31     120.218977   a                                                   + 
 +    32     120.218977   a                                                   + 
 +    33     123.422756   a                                                   + 
 +    34     123.422756   a                                                   + 
 +    35     124.292666   a                                                   + 
 +    36     124.292666   a                                                   + 
 +    37     141.824010   a                                                   + 
 +    38     141.824010   a                                                   + 
 +    39     142.977255   a                                                   + 
 +    40     142.977255   a                                                   + 
 +    41     150.064355   a                                                   + 
 +    42     150.064355   a                                                   + 
 +    43     150.278304   a                                                   + 
 +    44     150.278304   a                                                   + 
 +    45     166.833296   a                                                   + 
 +    46     166.833296   a                                                   + 
 +    47     168.745067   a                                                   + 
 +    48     168.745067   a                                                   + 
 + .......................................................................... +
 +        Character table from group theory analysis of eigenvectors          +
 +                           Point Group =   6, C2v                           +
 + .......................................................................... +
 +  Rep  Mul |    E   2   m   m                                               +
 +           | ----------------                                               +
 + a      24 |    2   0   0   0                                               +
 ==============================================================================
 
 ******************** Symmetrised Forces ********************
 *                                                          *
 *               Cartesian components (eV/A)                *
 * -------------------------------------------------------- *
 *                         x            y            z      *
 *                                                          *
 * P               1     -0.00000     -0.00081     -0.00023 *
 * P               2     -0.00000     -0.00064     -0.00027 *
 * P               3     -0.00000      0.00064     -0.00027 *
 * P               4     -0.00000      0.00081     -0.00023 *
 * K               1      0.00000     -0.00026      0.00005 *
 * K               2      0.00000     -0.00006      0.00017 *
 * K               3     -0.00000     -0.00001      0.00010 *
 * K               4     -0.00000      0.00017      0.00010 *
 * K               5     -0.00000      0.00006      0.00010 *
 * K               6     -0.00000      0.00023     -0.00001 *
 * K               7     -0.00000     -0.00023     -0.00001 *
 * K               8     -0.00000     -0.00006      0.00010 *
 * K               9     -0.00000     -0.00017      0.00010 *
 * K              10     -0.00000      0.00001      0.00010 *
 * K              11     -0.00000      0.00006      0.00017 *
 * K              12     -0.00000      0.00026      0.00005 *
 *                                                          *
 ************************************************************
 
 *********** Symmetrised Stress Tensor ***********
 *                                               *
 *          Cartesian components (GPa)           *
 * --------------------------------------------- *
 *             x             y             z     *
 *                                               *
 *  x     -0.000315      0.000000      0.000000  *
 *  y      0.000000     -0.000593      0.000000  *
 *  z      0.000000      0.000000     -0.000739  *
 *                                               *
 *  Pressure:    0.0005                          *
 *                                               *
 *************************************************
 
 Pseudo atomic calculation performed for P 3s2 3p3
 
 Converged in 33 iterations to a total energy of -214.2223 eV
 
 Pseudo atomic calculation performed for K 3s2 3p6 4s1
 
 Converged in 39 iterations to a total energy of -790.3776 eV
Charge spilling parameter for spin component 1 = 0.31%
 
            Orbital Populations       
     Ion    Atom   Orbital             Charge
  -------------------------------------------
      P     1      S                    1.780
      P     1      Px                   1.397
      P     1      Py                   1.330
      P     1      Pz                   1.329
      P     2      S                    1.780
      P     2      Px                   1.398
      P     2      Py                   1.329
      P     2      Pz                   1.328
      P     3      S                    1.778
      P     3      Px                   1.396
      P     3      Py                   1.328
      P     3      Pz                   1.328
      P     4      S                    1.778
      P     4      Px                   1.397
      P     4      Py                   1.328
      P     4      Pz                   1.328
      K     1      S                    2.006
      K     1      Px                   2.014
      K     1      Py                   2.012
      K     1      Pz                   2.013
      K     1      S                    0.384
      K     1      Px                   0.132
      K     1      Py                   0.138
      K     1      Pz                   0.137
      K     2      S                    2.006
      K     2      Px                   2.014
      K     2      Py                   2.013
      K     2      Pz                   2.013
      K     2      S                    0.384
      K     2      Px                   0.132
      K     2      Py                   0.138
      K     2      Pz                   0.137
      K     3      S                    2.007
      K     3      Px                   2.010
      K     3      Py                   2.013
      K     3      Pz                   2.010
      K     3      S                    0.292
      K     3      Px                   0.182
      K     3      Py                   0.007
      K     3      Pz                   0.152
      K     4      S                    2.007
      K     4      Px                   2.010
      K     4      Py                   2.010
      K     4      Pz                   2.013
      K     4      S                    0.293
      K     4      Px                   0.181
      K     4      Py                   0.152
      K     4      Pz                   0.007
      K     5      S                    2.007
      K     5      Px                   2.010
      K     5      Py                   2.010
      K     5      Pz                   2.013
      K     5      S                    0.293
      K     5      Px                   0.181
      K     5      Py                   0.151
      K     5      Pz                   0.007
      K     6      S                    2.007
      K     6      Px                   2.010
      K     6      Py                   2.013
      K     6      Pz                   2.010
      K     6      S                    0.293
      K     6      Px                   0.182
      K     6      Py                   0.007
      K     6      Pz                   0.152
      K     7      S                    2.007
      K     7      Px                   2.010
      K     7      Py                   2.013
      K     7      Pz                   2.009
      K     7      S                    0.299
      K     7      Px                   0.183
      K     7      Py                   0.011
      K     7      Pz                   0.170
      K     8      S                    2.007
      K     8      Px                   2.010
      K     8      Py                   2.009
      K     8      Pz                   2.013
      K     8      S                    0.300
      K     8      Px                   0.181
      K     8      Py                   0.169
      K     8      Pz                   0.011
      K     9      S                    2.007
      K     9      Px                   2.010
      K     9      Py                   2.009
      K     9      Pz                   2.013
      K     9      S                    0.300
      K     9      Px                   0.182
      K     9      Py                   0.169
      K     9      Pz                   0.011
      K    10      S                    2.007
      K    10      Px                   2.010
      K    10      Py                   2.013
      K    10      Pz                   2.009
      K    10      S                    0.299
      K    10      Px                   0.183
      K    10      Py                   0.011
      K    10      Pz                   0.169
      K    11      S                    2.006
      K    11      Px                   2.014
      K    11      Py                   2.013
      K    11      Pz                   2.013
      K    11      S                    0.379
      K    11      Px                   0.111
      K    11      Py                   0.110
      K    11      Pz                   0.109
      K    12      S                    2.006
      K    12      Px                   2.014
      K    12      Py                   2.013
      K    12      Pz                   2.013
      K    12      S                    0.379
      K    12      Px                   0.111
      K    12      Py                   0.111
      K    12      Pz                   0.109
  -------------------------------------------
                           Total:     128.000
  -------------------------------------------
 
     Atomic Populations (Mulliken)
     -----------------------------
Species          Ion     s      p      d      f     Total  Charge (e)
=====================================================================
  P               1     1.78   4.05   0.00   0.00   5.83    -0.83
  P               2     1.78   4.05   0.00   0.00   5.83    -0.83
  P               3     1.78   4.05   0.00   0.00   5.83    -0.83
  P               4     1.78   4.05   0.00   0.00   5.83    -0.83
  K               1     2.39   6.41   0.00   0.00   8.80     0.20
  K               2     2.39   6.41   0.00   0.00   8.80     0.20
  K               3     2.30   6.38   0.00   0.00   8.69     0.31
  K               4     2.30   6.38   0.00   0.00   8.69     0.31
  K               5     2.30   6.38   0.00   0.00   8.68     0.32
  K               6     2.30   6.38   0.00   0.00   8.69     0.31
  K               7     2.30   6.38   0.00   0.00   8.69     0.31
  K               8     2.30   6.38   0.00   0.00   8.68     0.32
  K               9     2.30   6.38   0.00   0.00   8.69     0.31
  K              10     2.30   6.38   0.00   0.00   8.69     0.31
  K              11     2.39   6.41   0.00   0.00   8.80     0.20
  K              12     2.39   6.41   0.00   0.00   8.80     0.20
=====================================================================
 
                 Bond                   Population      Length (A)
======================================================================
======================================================================
 

Writing analysis data to KP-yzcni8.castep_bin

Writing model to KP-yzcni8.check
Initialisation time =     10.29 s
Calculation time    =      4.95 s
Finalisation time   =      1.20 s
Total time          =     16.44 s
Peak Memory Use     = 1178968 kB
  
Overall parallel efficiency rating: Poor (36%)                                  
  
Data was distributed by:-
G-vector (80-way); efficiency rating: Poor (38%)                                
k-point (4-way); efficiency rating: Mediocre (53%)                              
  
Parallel notes:
1) Calculation only took 15.3 s, so efficiency estimates may be inaccurate.     
