 +-------------------------------------------------+
 |                                                 |
 |      CCC   AA    SSS  TTTTT  EEEEE  PPPP        |
 |     C     A  A  S       T    E      P   P       |
 |     C     AAAA   SS     T    EEE    PPPP        |
 |     C     A  A     S    T    E      P           |
 |      CCC  A  A  SSS     T    EEEEE  P           |
 |                                                 |
 +-------------------------------------------------+
 |                                                 |
 | Welcome to Academic Release CASTEP version 20.1 |          
 | Ab Initio Total Energy Program                  |
 |                                                 |
 | Authors:                                        |
 | M. Segall, M. Probert, C. Pickard, P. Hasnip,   |
 | S. Clark, K. Refson, J. R. Yates, M. Payne      |
 |                                                 |
 | Contributors:                                   |
 | P. Lindan, P. Haynes, J. White, V. Milman,      |
 | N. Govind, M. Gibson, P. Tulip, V. Cocula,      |
 | B. Montanari, D. Quigley, M. Glover,            |
 | L. Bernasconi, A. Perlov, M. Plummer,           |
 | E. McNellis, J. Meyer, J. Gale, D. Jochym       |
 | J. Aarons, B. Walker, R. Gillen, D. Jones       |
 | T. Green, I. J. Bush, C. J. Armstrong,          |
 | E. J. Higgins, E. L. Brown, M. S. McFly,        |
 | J. Wilkins, B-C. Shih, P. J. P. Byrne,          |
 | R. J. Maurer, J. C. Womack, A. Bartok-Partay    |
 |                                                 |
 | Copyright (c) 2000 - 2019                       |
 |                                                 |
 |     Distributed under the terms of an           |
 |     Agreement between the United Kingdom        |
 |     Car-Parrinello (UKCP) Consortium,           |
 |     Daresbury Laboratory and Accelrys, Inc.     |
 |                                                 |
 | Please cite                                     |
 |                                                 |
 |     "First principles methods using CASTEP"     |
 |                                                 |
 |         Zeitschrift fuer Kristallographie       |
 |           220(5-6) pp. 567-570 (2005)           |
 |                                                 |
 | S. J. Clark, M. D. Segall, C. J. Pickard,       |
 | P. J. Hasnip, M. J. Probert, K. Refson,         |
 | M. C. Payne                                     |
 |                                                 |
 |       in all publications arising from          |
 |              your use of CASTEP                 |
 |                                                 |
 +-------------------------------------------------+
 |                                                 |
 |              http://www.castep.org              |
 |                                                 |
 +-------------------------------------------------+
 
 
 
 Compiled for linux_x86_64_ifort17 on Fri, 06 Sep 2019 21:05:36 +0100
 from code version Version unavailable
 Compiler: Intel Fortran 17.0.4.196; Optimisation: fast
 MATHLIBS: Intel MKL(2017.0.3) (LAPACK version 3.7.0)
 FFT Lib : mkl
 Fundamental constants values: CODATA 2014
 
 Run started: Mon, 16 Mar 2020 04:16:50 +0000
 Warning - deprecated keyword PHONON_SUM_RULE found in input file
         - preferred usage is PHONON_SUM_RULE_METHOD
 
 Atomic calculation performed for P: 1s2 2s2 2p6 3s2 3p3
 
 Converged in 56 iterations to an ae energy of -9303.626 eV
 
   ============================================================                
   | Pseudopotential Report - Date of generation 16-03-2020   |                
   ------------------------------------------------------------                
   | Element: P Ionic charge:  5.00 Level of theory: PBE      |                
   | Atomic Solver: Koelling-Harmon                           |                
   |                                                          |                
   |               Reference Electronic Structure             |                
   |         Orbital         Occupation         Energy        |                
   |            3s              2.000           -0.513        |                
   |            3p              3.000           -0.202        |                
   |                                                          |                
   |                 Pseudopotential Definition               |                
   |        Beta     l      e      Rc     scheme   norm       |                
   |          1      0   -0.513   1.807     qc      0         |                
   |          2      0    0.250   1.807     qc      0         |                
   |          3      1   -0.202   1.807     qc      0         |                
   |          4      1    0.250   1.807     qc      0         |                
   |          5      2    0.000   1.807     qc      0         |                
   |          6      2    0.250   1.807     qc      0         |                
   |         loc     3    0.000   1.807     pn      0         |                
   |                                                          |                
   | Augmentation charge Rinner = 1.263                       |                
   | Partial core correction Rc = 1.263                       |                
   ------------------------------------------------------------                
   | "3|1.8|4|4|5|30:31:32"                                   |                
   ------------------------------------------------------------                
   |      Author: Chris J. Pickard, Cambridge University      |                
   ============================================================                
 
 Pseudo atomic calculation performed for P 3s2 3p3
 
 Converged in 33 iterations to a total energy of -214.2223 eV
 Calculation parallelised over 299 processes.
 Data is distributed by G-vector(13-way) and k-point(23-way)

 ************************************ Title ************************************
 

 ***************************** General Parameters ******************************
  
 output verbosity                               : normal  (1)
 write checkpoint data to                       : P-OQMD_24584-CollCode391323.check
 type of calculation                            : geometry optimization
 stress calculation                             : off
 density difference calculation                 : off
 electron localisation func (ELF) calculation   : off
 Hirshfeld analysis                             : off
 molecular orbital projected DOS                : off
 deltaSCF calculation                           : off
 unlimited duration calculation
 timing information                             : on
 memory usage estimate                          : on
 write extra output files                       : on
 write final potential to formatted file        : off
 write final density to formatted file          : off
 write structure in CELL formatted file         : on
 write BibTeX reference list                    : off
 write OTFG pseudopotential files               : on
 write electrostatic potential file             : on
 write bands file                               : on
 checkpoint writing                             : both castep_bin and check files
  
 output         length unit                     : A
 output           mass unit                     : amu
 output           time unit                     : ps
 output         charge unit                     : e
 output           spin unit                     : hbar/2
 output         energy unit                     : eV
 output          force unit                     : eV/A
 output       velocity unit                     : A/ps
 output       pressure unit                     : GPa
 output     inv_length unit                     : 1/A
 output      frequency unit                     : cm-1
 output force constant unit                     : eV/A**2
 output         volume unit                     : A**3
 output   IR intensity unit                     : (D/A)**2/amu
 output         dipole unit                     : D
 output         efield unit                     : eV/A/e
 output        entropy unit                     : J/mol/K
 output    efield chi2 unit                     : pm/V
  
 wavefunctions paging                           : none
 random number generator seed                   : randomised (41650723)
 data distribution                              : optimal for this architecture
 optimization strategy                          : maximize speed(+++)

 *********************** Exchange-Correlation Parameters ***********************
  
 using functional                               : Perdew Burke Ernzerhof
 relativistic treatment                         : Koelling-Harmon
 DFT+D: Semi-empirical dispersion correction    : off

 ************************* Pseudopotential Parameters **************************
  
 pseudopotential representation                 : reciprocal space
 <beta|phi> representation                      : reciprocal space
 spin-orbit coupling                            : off

 **************************** Basis Set Parameters *****************************
  
 plane wave basis set cut-off                   :   650.0000   eV
 size of standard grid                          :     2.0000
 size of   fine   gmax                          :    26.1231   1/A
 finite basis set correction                    : none

 **************************** Electronic Parameters ****************************
  
 number of  electrons                           :  210.0    
 net charge of system                           :  0.000    
 treating system as non-spin-polarized
 number of bands                                :        126

 ********************* Electronic Minimization Parameters **********************
  
 Method: Treating system as metallic with density mixing treatment of electrons,
         and number of  SD  steps               :          1
         and number of  CG  steps               :          4
  
 total energy / atom convergence tol.           : 0.1000E-10   eV
 eigen-energy convergence tolerance             : 0.1000E-10   eV
 max force / atom convergence tol.              : ignored
 convergence tolerance window                   :          3   cycles
 max. number of SCF cycles                      :        100
 number of fixed-spin iterations                :         10
 smearing scheme                                : Gaussian
 smearing width                                 : 0.2000       eV
 Fermi energy convergence tolerance             : 0.2721E-13   eV
 periodic dipole correction                     : NONE

 ************************** Density Mixing Parameters **************************
  
 density-mixing scheme                          : Broyden
 max. length of mixing history                  :         20
 charge density mixing amplitude                : 0.8000    
 cut-off energy for mixing                      :  650.0       eV

 *********************** Population Analysis Parameters ************************
  
 Population analysis with cutoff                :  3.000       A
 Population analysis output                     : summary and pdos components

 ********************** Geometry Optimization Parameters ***********************
  
 optimization method                            : LBFGS
 max. no. of LBFGS updates                      : unbounded
 variable cell method                           : fixed basis quality
 max. number of steps                           :        150
 estimated bulk modulus                         :  500.0       GPa
 estimated <frequency>                          :  1668.       cm-1
 geom line minimiser                            : on
 with line minimiser tolerance                  :     0.4000
 total energy convergence tolerance             : 0.2000E-04   eV/atom
        max ionic |force| tolerance             : 0.1000E-02   eV/A
 max ionic |displacement| tolerance             : 0.1000E-02   A
   max |stress component| tolerance             : 0.1000       GPa
 convergence tolerance window                   :          2   steps
 backup results every                           :       3400   seconds
 write geom trajectory file                     : on

 *******************************************************************************
  
 
                           -------------------------------
                                      Unit Cell
                           -------------------------------
        Real Lattice(A)                      Reciprocal Lattice(1/A)
     3.2994292   -12.1579775     0.0000000        0.000000000  -0.516795272  -0.158590377
     7.9900010     0.0000000     0.0000000        0.786381041   0.213407912  -0.230012842
     4.4928607    -3.6690531    11.9562694        0.000000000   0.000000000   0.525513862
 
                       Lattice parameters(A)       Cell Angles
                    a =     12.597724          alpha =   70.239682
                    b =      7.990001          beta  =   69.206284
                    c =     13.289098          gamma =   74.816767
 
                       Current cell volume =          1161.458944       A**3
                                   density =             1.120055   AMU/A**3
                                           =             1.859895     g/cm^3
 
                           -------------------------------
                                     Cell Contents
                           -------------------------------
                         Total number of ions in cell =   42
                      Total number of species in cell =    1
                        Max number of any one species =   42
 
            xxxxxxxxxxxxxxxxxxxxxxxxxxxxxxxxxxxxxxxxxxxxxxxxxxxxxxxxxxxx
            x  Element    Atom        Fractional coordinates of atoms  x
            x            Number           u          v          w      x
            x----------------------------------------------------------x
            x  P            1        -0.540716   0.408692   0.083420   x 
            x  P            2        -0.341103   0.581086   0.148844   x 
            x  P            3        -0.387914   0.333198   0.148025   x 
            x  P            4        -0.594297   0.834238   0.149766   x 
            x  P            5        -0.677227   0.622370   0.148877   x 
            x  P            6        -0.082467   0.329849   0.172627   x 
            x  P            7        -0.855719   0.103010   0.174347   x 
            x  P            8        -0.122431   0.071005   0.174190   x 
            x  P            9        -0.946542  -0.105507   0.176696   x 
            x  P           10        -0.490533   0.700114   0.268801   x 
            x  P           11        -0.243442   0.459988   0.271951   x 
            x  P           12        -0.735686  -0.047209   0.273575   x 
            x  P           13        -0.989653   0.228386   0.300578   x 
            x  P           14        -0.472236   0.225645   0.328896   x 
            x  P           15        -0.727593   0.480740   0.329775   x 
            x  P           16        -0.213718  -0.017435   0.357150   x 
            x  P           17        -0.987507  -0.243163   0.360412   x 
            x  P           18        -0.579178   0.462377   0.388955   x 
            x  P           19        -0.334316   0.223309   0.395591   x 
            x  P           20        -0.823186  -0.286823   0.397146   x 
            x  P           21        -0.080432  -0.008324   0.427610   x 
            x  P           22        -0.919568   0.008324   0.572390   x 
            x  P           23        -0.176814   0.286823   0.602854   x 
            x  P           24        -0.665684  -0.223309   0.604409   x 
            x  P           25        -0.420822  -0.462377   0.611045   x 
            x  P           26        -0.012493   0.243163   0.639588   x 
            x  P           27        -0.786282   0.017435   0.642850   x 
            x  P           28        -0.272407  -0.480740   0.670225   x 
            x  P           29        -0.527764  -0.225645   0.671104   x 
            x  P           30        -0.010347  -0.228386   0.699422   x 
            x  P           31        -0.264314   0.047209   0.726425   x 
            x  P           32        -0.756558  -0.459988   0.728049   x 
            x  P           33        -0.509467  -0.700114   0.731199   x 
            x  P           34        -0.053458   0.105507   0.823304   x 
            x  P           35        -0.877569  -0.071005   0.825810   x 
            x  P           36        -0.144281  -0.103010   0.825653   x 
            x  P           37        -0.917533  -0.329849   0.827373   x 
            x  P           38        -0.322773  -0.622370   0.851123   x 
            x  P           39        -0.405703  -0.834238   0.850234   x 
            x  P           40        -0.612086  -0.333198   0.851975   x 
            x  P           41        -0.658897  -0.581086   0.851156   x 
            x  P           42        -0.459284  -0.408692   0.916580   x 
            xxxxxxxxxxxxxxxxxxxxxxxxxxxxxxxxxxxxxxxxxxxxxxxxxxxxxxxxxxxx
 
 
                         No user defined ionic velocities
 
                           -------------------------------
                                   Details of Species
                           -------------------------------
 
                               Mass of species in AMU
                                    P   30.9737600
 
                          Electric Quadrupole Moment (Barn)
                                    P    1.0000000 No Isotope Defined
 
                          Files used for pseudopotentials:
                                    P 3|1.8|4|4|5|30:31:32
 
                           -------------------------------
                              k-Points For BZ Sampling
                           -------------------------------
                       MP grid size for SCF calculation is  3  5  3
                            with an offset of   0.000  0.000  0.000
                       Number of kpoints used =            23
 
                           -------------------------------
                               Symmetry and Constraints
                           -------------------------------
 
                      Maximum deviation from symmetry = 0.188002E-14     ANG
 
                      Number of symmetry operations   =           2
                      Number of ionic constraints     =           3
                      Point group of crystal =     2: Ci, -1, -1
                      Space group of crystal =     2: P-1, -P 1
 
             Set iprint > 1 for details on symmetry rotations/translations
 
                         Centre of mass is constrained
             Set iprint > 1 for details of linear ionic constraints
 
                         Number of cell constraints= 0
                         Cell constraints are:  1 2 3 4 5 6
 
                         External pressure/stress (GPa)
                          0.00000   0.00000   0.00000
                                    0.00000   0.00000
                                              0.00000
  
+---------------- MEMORY AND SCRATCH DISK ESTIMATES PER PROCESS --------------+
|                                                     Memory          Disk    |
| Baseline code, static data and system overhead      673.0 MB         0.0 MB |
| BLAS internal memory storage                          0.0 MB         0.0 MB |
| Model and support data                              333.9 MB         0.0 MB |
| Electronic energy minimisation requirements          51.4 MB         0.0 MB |
| Force calculation requirements                       14.0 MB         0.0 MB |
|                                               ----------------------------- |
| Approx. total storage required per process         1058.2 MB         0.0 MB |
|                                                                             |
| Requirements will fluctuate during execution and may exceed these estimates |
+-----------------------------------------------------------------------------+
Calculating total energy with cut-off of  650.000 eV.
------------------------------------------------------------------------ <-- SCF
SCF loop      Energy           Fermi           Energy gain       Timer   <-- SCF
                               energy          per atom          (sec)   <-- SCF
------------------------------------------------------------------------ <-- SCF
Initial  -1.63434957E+003  0.00000000E+000                         7.29  <-- SCF
      1  -8.46835681E+003  4.39146267E+000   1.62714458E+002      13.38  <-- SCF
      2  -9.18662995E+003  1.77616219E+000   1.71017414E+001      17.70  <-- SCF
      3  -9.22509001E+003  1.71209334E+000   9.15715695E-001      22.28  <-- SCF
      4  -9.22388821E+003  1.87845935E+000  -2.86143176E-002      28.96  <-- SCF
      5  -9.22386542E+003  1.97670830E+000  -5.42677998E-004      36.76  <-- SCF
      6  -9.22388607E+003  2.00566664E+000   4.91779134E-004      43.35  <-- SCF
      7  -9.22389606E+003  2.02394212E+000   2.37727821E-004      49.58  <-- SCF
      8  -9.22389773E+003  2.03030012E+000   3.98237465E-005      56.13  <-- SCF
      9  -9.22389796E+003  2.03107852E+000   5.36736026E-006      63.05  <-- SCF
     10  -9.22389799E+003  2.03186037E+000   7.07007172E-007      69.42  <-- SCF
     11  -9.22389799E+003  2.03175275E+000   6.51588218E-008      76.73  <-- SCF
     12  -9.22389799E+003  2.03173500E+000   1.65176357E-008      83.15  <-- SCF
     13  -9.22389799E+003  2.03168334E+000   2.83069609E-009      89.60  <-- SCF
     14  -9.22389799E+003  2.03168287E+000   3.63937170E-010      96.43  <-- SCF
     15  -9.22389799E+003  2.03167821E+000   8.39685030E-011     101.35  <-- SCF
     16  -9.22389799E+003  2.03167960E+000   3.54288157E-011     106.10  <-- SCF
     17  -9.22389799E+003  2.03167966E+000   5.78204166E-012     110.79  <-- SCF
     18  -9.22389799E+003  2.03167982E+000   1.03119214E-012     115.49  <-- SCF
------------------------------------------------------------------------ <-- SCF
 
Final energy, E             =  -9223.897989154     eV
Final free energy (E-TS)    =  -9223.897989154     eV
(energies not corrected for finite basis set)
 
NB est. 0K energy (E-0.5TS)      =  -9223.897989154     eV
 

Writing analysis data to P-OQMD_24584-CollCode391323.castep_bin

Writing model to P-OQMD_24584-CollCode391323.check

WARNING - doing cell minimisation without finite basis correction:
        => now searching for a stationary and not minimum energy
 
+---------------- MEMORY AND SCRATCH DISK ESTIMATES PER PROCESS --------------+
|                                                     Memory          Disk    |
| Model and support data                              346.8 MB         0.0 MB |
| Electronic energy minimisation requirements          51.4 MB         0.0 MB |
| Geometry minimisation requirements                   59.3 MB         0.0 MB |
|                                               ----------------------------- |
| Approx. total storage required per process          457.5 MB         0.0 MB |
|                                                                             |
| Requirements will fluctuate during execution and may exceed these estimates |
+-----------------------------------------------------------------------------+
 
 
 ******************************** Symmetrised Forces ********************************
 *                                                                                  *
 *                           Cartesian components (eV/A)                            *
 * -------------------------------------------------------------------------------- *
 *                         x                    y                    z              *
 *                                                                                  *
 * P               1      0.00068             -0.00142              0.00057         *
 * P               2     -0.00080             -0.00228             -0.00067         *
 * P               3      0.00099              0.00215             -0.00056         *
 * P               4     -0.00096              0.00166              0.00106         *
 * P               5      0.00175             -0.00101             -0.00076         *
 * P               6      0.00044             -0.00120              0.00153         *
 * P               7     -0.00034              0.00159              0.00047         *
 * P               8      0.00138             -0.00118              0.00110         *
 * P               9      0.00246             -0.00036             -0.00203         *
 * P              10     -0.00092              0.00258             -0.00180         *
 * P              11     -0.00221              0.00131              0.00163         *
 * P              12     -0.00119             -0.00019              0.00072         *
 * P              13     -0.00264              0.00046              0.00031         *
 * P              14     -0.00043              0.00148             -0.00004         *
 * P              15     -0.00037             -0.00171              0.00032         *
 * P              16      0.00119              0.00053             -0.00148         *
 * P              17     -0.00020             -0.00244             -0.00054         *
 * P              18      0.00150             -0.00070             -0.00282         *
 * P              19     -0.00007              0.00047              0.00051         *
 * P              20     -0.00061             -0.00062             -0.00168         *
 * P              21     -0.00058             -0.00183             -0.00322         *
 * P              22      0.00058              0.00183              0.00322         *
 * P              23      0.00061              0.00062              0.00168         *
 * P              24      0.00007             -0.00047             -0.00051         *
 * P              25     -0.00150              0.00070              0.00282         *
 * P              26      0.00020              0.00244              0.00054         *
 * P              27     -0.00119             -0.00053              0.00148         *
 * P              28      0.00037              0.00171             -0.00032         *
 * P              29      0.00043             -0.00148              0.00004         *
 * P              30      0.00264             -0.00046             -0.00031         *
 * P              31      0.00119              0.00019             -0.00072         *
 * P              32      0.00221             -0.00131             -0.00163         *
 * P              33      0.00092             -0.00258              0.00180         *
 * P              34     -0.00246              0.00036              0.00203         *
 * P              35     -0.00138              0.00118             -0.00110         *
 * P              36      0.00034             -0.00159             -0.00047         *
 * P              37     -0.00044              0.00120             -0.00153         *
 * P              38     -0.00175              0.00101              0.00076         *
 * P              39      0.00096             -0.00166             -0.00106         *
 * P              40     -0.00099             -0.00215              0.00056         *
 * P              41      0.00080              0.00228              0.00067         *
 * P              42     -0.00068              0.00142             -0.00057         *
 *                                                                                  *
 ************************************************************************************
 
 *********** Symmetrised Stress Tensor ***********
 *                                               *
 *          Cartesian components (GPa)           *
 * --------------------------------------------- *
 *             x             y             z     *
 *                                               *
 *  x      0.002597     -0.002554     -0.000294  *
 *  y     -0.002554     -0.002489      0.000284  *
 *  z     -0.000294      0.000284      0.002751  *
 *                                               *
 *  Pressure:   -0.0010                          *
 *                                               *
 *************************************************
 LBFGS: finished iteration     0 with enthalpy= -9.22389799E+003 eV
  
 +-----------+-----------------+-----------------+------------+-----+ <-- LBFGS
 | Parameter |      value      |    tolerance    |    units   | OK? | <-- LBFGS
 +-----------+-----------------+-----------------+------------+-----+ <-- LBFGS
 |  dE/ion   |   0.000000E+000 |   2.000000E-005 |         eV | No  | <-- LBFGS
 |  |F|max   |   3.746141E-003 |   1.000000E-003 |       eV/A | No  | <-- LBFGS
 |  |dR|max  |   7.376931E-016 |   1.000000E-003 |          A | No  | <-- LBFGS
 |   Smax    |   2.751264E-003 |   1.000000E-001 |        GPa | Yes | <-- LBFGS
 +-----------+-----------------+-----------------+------------+-----+ <-- LBFGS
  

================================================================================
 Starting LBFGS iteration          1 ...
================================================================================
  
 +------------+-------------+-------------+-----------------+ <-- min LBFGS
 |    Step    |   lambda    |   F.delta'  |    enthalpy     | <-- min LBFGS
 +------------+-------------+-------------+-----------------+ <-- min LBFGS
 |  previous  |    0.000000 |    0.005292 |    -9223.897989 | <-- min LBFGS
 +------------+-------------+-------------+-----------------+ <-- min LBFGS
  

--------------------------------------------------------------------------------
 LBFGS: starting iteration         1 with trial guess (lambda=  1.000000)
--------------------------------------------------------------------------------
 
                           -------------------------------
                                      Unit Cell
                           -------------------------------
        Real Lattice(A)              Reciprocal Lattice(1/A)
     3.2994028   -12.1579921     0.0000029        0.000000911  -0.516794445  -0.158590766
     7.9899872     0.0000136     0.0000016        0.786382084   0.213406175  -0.230013377
     4.4928490    -3.6690538    11.9562491       -0.000000103   0.000000099   0.525514825
 
                       Lattice parameters(A)       Cell Angles
                    a =     12.597731          alpha =   70.239719
                    b =      7.989987          beta  =   69.206282
                    c =     13.289076          gamma =   74.816997
 
                Current cell volume =          1161.456730 A**3
                            density =             1.120057 amu/A**3
                                    =             1.859899 g/cm^3
 
                           -------------------------------
                                     Cell Contents
                           -------------------------------
 
            xxxxxxxxxxxxxxxxxxxxxxxxxxxxxxxxxxxxxxxxxxxxxxxxxxxxxxxxxxxxxxxxx
            x  Element         Atom        Fractional coordinates of atoms  x
            x                 Number           u          v          w      x
            x---------------------------------------------------------------x
            x  P                 1        -0.540716   0.408692   0.083420   x
            x  P                 2        -0.341102   0.581086   0.148844   x
            x  P                 3        -0.387915   0.333199   0.148025   x
            x  P                 4        -0.594298   0.834238   0.149766   x
            x  P                 5        -0.677227   0.622371   0.148877   x
            x  P                 6        -0.082467   0.329849   0.172627   x
            x  P                 7        -0.855719   0.103010   0.174347   x
            x  P                 8        -0.122431   0.071005   0.174190   x
            x  P                 9        -0.946542  -0.105506   0.176695   x
            x  P                10        -0.490534   0.700114   0.268801   x
            x  P                11        -0.243442   0.459987   0.271951   x
            x  P                12        -0.735686  -0.047210   0.273575   x
            x  P                13        -0.989653   0.228385   0.300578   x
            x  P                14        -0.472236   0.225645   0.328896   x
            x  P                15        -0.727593   0.480740   0.329775   x
            x  P                16        -0.213718  -0.017434   0.357150   x
            x  P                17        -0.987506  -0.243163   0.360412   x
            x  P                18        -0.579178   0.462378   0.388954   x
            x  P                19        -0.334316   0.223309   0.395591   x
            x  P                20        -0.823186  -0.286823   0.397146   x
            x  P                21        -0.080431  -0.008324   0.427609   x
            x  P                22        -0.919569   0.008324   0.572391   x
            x  P                23        -0.176814   0.286823   0.602854   x
            x  P                24        -0.665684  -0.223309   0.604409   x
            x  P                25        -0.420822  -0.462378   0.611046   x
            x  P                26        -0.012494   0.243163   0.639588   x
            x  P                27        -0.786282   0.017434   0.642850   x
            x  P                28        -0.272407  -0.480740   0.670225   x
            x  P                29        -0.527764  -0.225645   0.671104   x
            x  P                30        -0.010347  -0.228385   0.699422   x
            x  P                31        -0.264314   0.047210   0.726425   x
            x  P                32        -0.756558  -0.459987   0.728049   x
            x  P                33        -0.509466  -0.700114   0.731199   x
            x  P                34        -0.053458   0.105506   0.823305   x
            x  P                35        -0.877569  -0.071005   0.825810   x
            x  P                36        -0.144281  -0.103010   0.825653   x
            x  P                37        -0.917533  -0.329849   0.827373   x
            x  P                38        -0.322773  -0.622371   0.851123   x
            x  P                39        -0.405702  -0.834238   0.850234   x
            x  P                40        -0.612085  -0.333199   0.851975   x
            x  P                41        -0.658898  -0.581086   0.851156   x
            x  P                42        -0.459284  -0.408692   0.916580   x
            xxxxxxxxxxxxxxxxxxxxxxxxxxxxxxxxxxxxxxxxxxxxxxxxxxxxxxxxxxxxxxxxx
 
 
------------------------------------------------------------------------ <-- SCF
SCF loop      Energy           Fermi           Energy gain       Timer   <-- SCF
                               energy          per atom          (sec)   <-- SCF
------------------------------------------------------------------------ <-- SCF
Initial  -9.22389799E+003  0.00000000E+000                       202.67  <-- SCF
      1  -9.22389799E+003  2.03167013E+000   1.58938381E-008     207.64  <-- SCF
      2  -9.22389799E+003  2.03167013E+000   3.40956316E-010     214.55  <-- SCF
      3  -9.22389799E+003  2.03168718E+000  -8.67703994E-009     220.80  <-- SCF
      4  -9.22389799E+003  2.03169128E+000  -2.06974994E-011     227.11  <-- SCF
      5  -9.22389799E+003  2.03169502E+000  -1.70146703E-011     232.00  <-- SCF
      6  -9.22389799E+003  2.03169714E+000   3.53551592E-012     236.60  <-- SCF
      7  -9.22389799E+003  2.03169804E+000   3.38820275E-012     241.19  <-- SCF
------------------------------------------------------------------------ <-- SCF
 
Final energy, E             =  -9223.897990033     eV
Final free energy (E-TS)    =  -9223.897990033     eV
(energies not corrected for finite basis set)
 
NB est. 0K energy (E-0.5TS)      =  -9223.897990033     eV
 
 
 ******************************** Symmetrised Forces ********************************
 *                                                                                  *
 *                           Cartesian components (eV/A)                            *
 * -------------------------------------------------------------------------------- *
 *                         x                    y                    z              *
 *                                                                                  *
 * P               1      0.00067             -0.00130              0.00059         *
 * P               2     -0.00072             -0.00222             -0.00069         *
 * P               3      0.00094              0.00207             -0.00056         *
 * P               4     -0.00086              0.00161              0.00094         *
 * P               5      0.00158             -0.00095             -0.00075         *
 * P               6      0.00051             -0.00115              0.00146         *
 * P               7     -0.00026              0.00145              0.00041         *
 * P               8      0.00132             -0.00116              0.00098         *
 * P               9      0.00233             -0.00031             -0.00202         *
 * P              10     -0.00085              0.00243             -0.00182         *
 * P              11     -0.00213              0.00123              0.00160         *
 * P              12     -0.00110             -0.00014              0.00069         *
 * P              13     -0.00249              0.00039              0.00036         *
 * P              14     -0.00046              0.00148             -0.00003         *
 * P              15     -0.00042             -0.00164              0.00028         *
 * P              16      0.00110              0.00050             -0.00138         *
 * P              17     -0.00028             -0.00235             -0.00057         *
 * P              18      0.00147             -0.00069             -0.00272         *
 * P              19     -0.00012              0.00049              0.00053         *
 * P              20     -0.00061             -0.00063             -0.00159         *
 * P              21     -0.00059             -0.00178             -0.00306         *
 * P              22      0.00059              0.00178              0.00306         *
 * P              23      0.00061              0.00063              0.00159         *
 * P              24      0.00012             -0.00049             -0.00053         *
 * P              25     -0.00147              0.00069              0.00272         *
 * P              26      0.00028              0.00235              0.00057         *
 * P              27     -0.00110             -0.00050              0.00138         *
 * P              28      0.00042              0.00164             -0.00028         *
 * P              29      0.00046             -0.00148              0.00003         *
 * P              30      0.00249             -0.00039             -0.00036         *
 * P              31      0.00110              0.00014             -0.00069         *
 * P              32      0.00213             -0.00123             -0.00160         *
 * P              33      0.00085             -0.00243              0.00182         *
 * P              34     -0.00233              0.00031              0.00202         *
 * P              35     -0.00132              0.00116             -0.00098         *
 * P              36      0.00026             -0.00145             -0.00041         *
 * P              37     -0.00051              0.00115             -0.00146         *
 * P              38     -0.00158              0.00095              0.00075         *
 * P              39      0.00086             -0.00161             -0.00094         *
 * P              40     -0.00094             -0.00207              0.00056         *
 * P              41      0.00072              0.00222              0.00069         *
 * P              42     -0.00067              0.00130             -0.00059         *
 *                                                                                  *
 ************************************************************************************
 
 *********** Symmetrised Stress Tensor ***********
 *                                               *
 *          Cartesian components (GPa)           *
 * --------------------------------------------- *
 *             x             y             z     *
 *                                               *
 *  x      0.002158     -0.002264     -0.000215  *
 *  y     -0.002264     -0.002428      0.000264  *
 *  z     -0.000215      0.000264      0.002395  *
 *                                               *
 *  Pressure:   -0.0007                          *
 *                                               *
 *************************************************
  
 +------------+-------------+-------------+-----------------+ <-- min LBFGS
 |    Step    |   lambda    |   F.delta'  |    enthalpy     | <-- min LBFGS
 +------------+-------------+-------------+-----------------+ <-- min LBFGS
 |  previous  |    0.000000 |    0.005292 |    -9223.897989 | <-- min LBFGS
 | trial step |    1.000000 |    0.004999 |    -9223.897990 | <-- min LBFGS
 +------------+-------------+-------------+-----------------+ <-- min LBFGS
  

--------------------------------------------------------------------------------
 LBFGS: improving iteration         1 with line minimization (lambda= 18.055893)
--------------------------------------------------------------------------------
 
                           -------------------------------
                                      Unit Cell
                           -------------------------------
        Real Lattice(A)              Reciprocal Lattice(1/A)
     3.2989523   -12.1582403     0.0000532        0.000016449  -0.516780334  -0.158597397
     7.9897513     0.0002456     0.0000282        0.786399874   0.213376557  -0.230022510
     4.4926497    -3.6690657    11.9559019       -0.000001858   0.000001797   0.525531266
 
                       Lattice parameters(A)       Cell Angles
                    a =     12.597853          alpha =   70.240354
                    b =      7.989751          beta  =   69.206251
                    c =     13.288699          gamma =   74.820934
 
                Current cell volume =          1161.418968 A**3
                            density =             1.120094 amu/A**3
                                    =             1.859959 g/cm^3
 
                           -------------------------------
                                     Cell Contents
                           -------------------------------
 
            xxxxxxxxxxxxxxxxxxxxxxxxxxxxxxxxxxxxxxxxxxxxxxxxxxxxxxxxxxxxxxxxx
            x  Element         Atom        Fractional coordinates of atoms  x
            x                 Number           u          v          w      x
            x---------------------------------------------------------------x
            x  P                 1        -0.540710   0.408693   0.083423   x
            x  P                 2        -0.341091   0.581077   0.148841   x
            x  P                 3        -0.387923   0.333210   0.148022   x
            x  P                 4        -0.594306   0.834232   0.149771   x
            x  P                 5        -0.677221   0.622382   0.148873   x
            x  P                 6        -0.082464   0.329847   0.172634   x
            x  P                 7        -0.855727   0.103010   0.174349   x
            x  P                 8        -0.122427   0.071010   0.174195   x
            x  P                 9        -0.946537  -0.105486   0.176686   x
            x  P                10        -0.490542   0.700116   0.268792   x
            x  P                11        -0.243450   0.459971   0.271959   x
            x  P                12        -0.735686  -0.047219   0.273578   x
            x  P                13        -0.989656   0.228367   0.300579   x
            x  P                14        -0.472243   0.225645   0.328896   x
            x  P                15        -0.727585   0.480733   0.329777   x
            x  P                16        -0.213718  -0.017422   0.357143   x
            x  P                17        -0.987495  -0.243168   0.360409   x
            x  P                18        -0.579171   0.462392   0.388942   x
            x  P                19        -0.334319   0.223308   0.395593   x
            x  P                20        -0.823181  -0.286825   0.397138   x
            x  P                21        -0.080419  -0.008325   0.427595   x
            x  P                22        -0.919581   0.008325   0.572405   x
            x  P                23        -0.176819   0.286825   0.602862   x
            x  P                24        -0.665681  -0.223308   0.604407   x
            x  P                25        -0.420829  -0.462392   0.611058   x
            x  P                26        -0.012505   0.243168   0.639591   x
            x  P                27        -0.786282   0.017422   0.642857   x
            x  P                28        -0.272415  -0.480733   0.670223   x
            x  P                29        -0.527757  -0.225645   0.671104   x
            x  P                30        -0.010344  -0.228367   0.699421   x
            x  P                31        -0.264314   0.047219   0.726422   x
            x  P                32        -0.756550  -0.459971   0.728041   x
            x  P                33        -0.509458  -0.700116   0.731208   x
            x  P                34        -0.053463   0.105486   0.823314   x
            x  P                35        -0.877573  -0.071010   0.825805   x
            x  P                36        -0.144273  -0.103010   0.825651   x
            x  P                37        -0.917536  -0.329847   0.827366   x
            x  P                38        -0.322779  -0.622382   0.851127   x
            x  P                39        -0.405694  -0.834232   0.850229   x
            x  P                40        -0.612077  -0.333210   0.851978   x
            x  P                41        -0.658909  -0.581077   0.851159   x
            x  P                42        -0.459290  -0.408693   0.916577   x
            xxxxxxxxxxxxxxxxxxxxxxxxxxxxxxxxxxxxxxxxxxxxxxxxxxxxxxxxxxxxxxxxx
 
 
------------------------------------------------------------------------ <-- SCF
SCF loop      Energy           Fermi           Energy gain       Timer   <-- SCF
                               energy          per atom          (sec)   <-- SCF
------------------------------------------------------------------------ <-- SCF
Initial  -9.22389791E+003  0.00000000E+000                       325.32  <-- SCF
      1  -9.22389810E+003  2.03122684E+000   4.56635871E-006     330.27  <-- SCF
      2  -9.22389810E+003  2.03122662E+000   9.91730997E-008     337.33  <-- SCF
      3  -9.22389800E+003  2.03156406E+000  -2.52773150E-006     343.39  <-- SCF
      4  -9.22389800E+003  2.03162466E+000  -6.14406375E-009     349.96  <-- SCF
      5  -9.22389800E+003  2.03169033E+000  -4.38138810E-009     356.54  <-- SCF
      6  -9.22389800E+003  2.03172717E+000   8.46314123E-010     363.50  <-- SCF
      7  -9.22389800E+003  2.03174326E+000   4.06105563E-010     369.70  <-- SCF
      8  -9.22389800E+003  2.03174835E+000   9.74844857E-011     375.39  <-- SCF
      9  -9.22389800E+003  2.03174707E+000   1.47313163E-011     380.03  <-- SCF
     10  -9.22389800E+003  2.03174633E+000   4.12476857E-012     384.63  <-- SCF
     11  -9.22389800E+003  2.03174597E+000   8.83878979E-013     389.19  <-- SCF
------------------------------------------------------------------------ <-- SCF
 
Final energy, E             =  -9223.897997272     eV
Final free energy (E-TS)    =  -9223.897997272     eV
(energies not corrected for finite basis set)
 
NB est. 0K energy (E-0.5TS)      =  -9223.897997272     eV
 
 
 ******************************** Symmetrised Forces ********************************
 *                                                                                  *
 *                           Cartesian components (eV/A)                            *
 * -------------------------------------------------------------------------------- *
 *                         x                    y                    z              *
 *                                                                                  *
 * P               1      0.00065              0.00058              0.00085         *
 * P               2      0.00068             -0.00111             -0.00101         *
 * P               3     -0.00002              0.00079             -0.00059         *
 * P               4      0.00099              0.00061             -0.00116         *
 * P               5     -0.00119              0.00000             -0.00055         *
 * P               6      0.00171             -0.00022              0.00027         *
 * P               7      0.00123             -0.00076             -0.00062         *
 * P               8      0.00031             -0.00072             -0.00109         *
 * P               9      0.00004              0.00065             -0.00182         *
 * P              10      0.00035             -0.00010             -0.00201         *
 * P              11     -0.00073             -0.00017              0.00112         *
 * P              12      0.00050              0.00069              0.00006         *
 * P              13      0.00019             -0.00089              0.00134         *
 * P              14     -0.00101              0.00136              0.00029         *
 * P              15     -0.00133             -0.00059             -0.00019         *
 * P              16     -0.00057              0.00006              0.00023         *
 * P              17     -0.00164             -0.00080             -0.00106         *
 * P              18      0.00098             -0.00059             -0.00090         *
 * P              19     -0.00092              0.00089              0.00095         *
 * P              20     -0.00056             -0.00080              0.00003         *
 * P              21     -0.00076             -0.00094             -0.00039         *
 * P              22      0.00076              0.00094              0.00039         *
 * P              23      0.00056              0.00080             -0.00003         *
 * P              24      0.00092             -0.00089             -0.00095         *
 * P              25     -0.00098              0.00059              0.00090         *
 * P              26      0.00164              0.00080              0.00106         *
 * P              27      0.00057             -0.00006             -0.00023         *
 * P              28      0.00133              0.00059              0.00019         *
 * P              29      0.00101             -0.00136             -0.00029         *
 * P              30     -0.00019              0.00089             -0.00134         *
 * P              31     -0.00050             -0.00069             -0.00006         *
 * P              32      0.00073              0.00017             -0.00112         *
 * P              33     -0.00035              0.00010              0.00201         *
 * P              34     -0.00004             -0.00065              0.00182         *
 * P              35     -0.00031              0.00072              0.00109         *
 * P              36     -0.00123              0.00076              0.00062         *
 * P              37     -0.00171              0.00022             -0.00027         *
 * P              38      0.00119             -0.00000              0.00055         *
 * P              39     -0.00099             -0.00061              0.00116         *
 * P              40      0.00002             -0.00079              0.00059         *
 * P              41     -0.00068              0.00111              0.00101         *
 * P              42     -0.00065             -0.00058             -0.00085         *
 *                                                                                  *
 ************************************************************************************
 
 *********** Symmetrised Stress Tensor ***********
 *                                               *
 *          Cartesian components (GPa)           *
 * --------------------------------------------- *
 *             x             y             z     *
 *                                               *
 *  x     -0.005402      0.002700      0.001120  *
 *  y      0.002700     -0.001451     -0.000075  *
 *  z      0.001120     -0.000075     -0.003713  *
 *                                               *
 *  Pressure:    0.0035                          *
 *                                               *
 *************************************************
  
 +------------+-------------+-------------+-----------------+ <-- min LBFGS
 |    Step    |   lambda    |   F.delta'  |    enthalpy     | <-- min LBFGS
 +------------+-------------+-------------+-----------------+ <-- min LBFGS
 |  previous  |    0.000000 |    0.005292 |    -9223.897989 | <-- min LBFGS
 | trial step |    1.000000 |    0.004999 |    -9223.897990 | <-- min LBFGS
 |  line step |   18.055893 |   -0.000051 |    -9223.897997 | <-- min LBFGS
 +------------+-------------+-------------+-----------------+ <-- min LBFGS
  
 LBFGS: finished iteration     1 with enthalpy= -9.22389800E+003 eV
  
 +-----------+-----------------+-----------------+------------+-----+ <-- LBFGS
 | Parameter |      value      |    tolerance    |    units   | OK? | <-- LBFGS
 +-----------+-----------------+-----------------+------------+-----+ <-- LBFGS
 |  dE/ion   |   1.932731E-007 |   2.000000E-005 |         eV | Yes | <-- LBFGS
 |  |F|max   |   2.112971E-003 |   1.000000E-003 |       eV/A | No  | <-- LBFGS
 |  |dR|max  |   2.134834E-004 |   1.000000E-003 |          A | Yes | <-- LBFGS
 |   Smax    |   5.401836E-003 |   1.000000E-001 |        GPa | Yes | <-- LBFGS
 +-----------+-----------------+-----------------+------------+-----+ <-- LBFGS
  

================================================================================
 Starting LBFGS iteration          2 ...
================================================================================
  
 +------------+-------------+-------------+-----------------+ <-- min LBFGS
 |    Step    |   lambda    |   F.delta'  |    enthalpy     | <-- min LBFGS
 +------------+-------------+-------------+-----------------+ <-- min LBFGS
 |  previous  |    0.000000 |    0.003521 |    -9223.897997 | <-- min LBFGS
 +------------+-------------+-------------+-----------------+ <-- min LBFGS
  

--------------------------------------------------------------------------------
 LBFGS: starting iteration         2 with trial guess (lambda=  1.000000)
--------------------------------------------------------------------------------
 
                           -------------------------------
                                      Unit Cell
                           -------------------------------
        Real Lattice(A)              Reciprocal Lattice(1/A)
     3.2989733   -12.1582647     0.0000516        0.000015842  -0.516779439  -0.158597166
     7.9897732     0.0002378     0.0000231        0.786397773   0.213376943  -0.230021629
     4.4926579    -3.6690770    11.9559180       -0.000001518   0.000001818   0.525530435
 
                       Lattice parameters(A)       Cell Angles
                    a =     12.597882          alpha =   70.240368
                    b =      7.989773          beta  =   69.206214
                    c =     13.288720          gamma =   74.820816
 
                Current cell volume =          1161.426021 A**3
                            density =             1.120087 amu/A**3
                                    =             1.859948 g/cm^3
 
                           -------------------------------
                                     Cell Contents
                           -------------------------------
 
            xxxxxxxxxxxxxxxxxxxxxxxxxxxxxxxxxxxxxxxxxxxxxxxxxxxxxxxxxxxxxxxxx
            x  Element         Atom        Fractional coordinates of atoms  x
            x                 Number           u          v          w      x
            x---------------------------------------------------------------x
            x  P                 1        -0.540710   0.408693   0.083423   x
            x  P                 2        -0.341091   0.581077   0.148840   x
            x  P                 3        -0.387924   0.333211   0.148022   x
            x  P                 4        -0.594307   0.834233   0.149771   x
            x  P                 5        -0.677221   0.622382   0.148873   x
            x  P                 6        -0.082463   0.329847   0.172635   x
            x  P                 7        -0.855727   0.103010   0.174349   x
            x  P                 8        -0.122427   0.071011   0.174195   x
            x  P                 9        -0.946537  -0.105485   0.176686   x
            x  P                10        -0.490543   0.700117   0.268792   x
            x  P                11        -0.243451   0.459971   0.271959   x
            x  P                12        -0.735686  -0.047219   0.273579   x
            x  P                13        -0.989656   0.228367   0.300580   x
            x  P                14        -0.472243   0.225645   0.328896   x
            x  P                15        -0.727585   0.480733   0.329776   x
            x  P                16        -0.213718  -0.017422   0.357143   x
            x  P                17        -0.987494  -0.243169   0.360409   x
            x  P                18        -0.579170   0.462393   0.388941   x
            x  P                19        -0.334319   0.223308   0.395594   x
            x  P                20        -0.823180  -0.286825   0.397138   x
            x  P                21        -0.080418  -0.008325   0.427594   x
            x  P                22        -0.919582   0.008325   0.572406   x
            x  P                23        -0.176820   0.286825   0.602862   x
            x  P                24        -0.665681  -0.223308   0.604406   x
            x  P                25        -0.420830  -0.462393   0.611059   x
            x  P                26        -0.012506   0.243169   0.639591   x
            x  P                27        -0.786282   0.017422   0.642857   x
            x  P                28        -0.272415  -0.480733   0.670224   x
            x  P                29        -0.527757  -0.225645   0.671104   x
            x  P                30        -0.010344  -0.228367   0.699420   x
            x  P                31        -0.264314   0.047219   0.726421   x
            x  P                32        -0.756549  -0.459971   0.728041   x
            x  P                33        -0.509457  -0.700117   0.731208   x
            x  P                34        -0.053463   0.105485   0.823314   x
            x  P                35        -0.877573  -0.071011   0.825805   x
            x  P                36        -0.144273  -0.103010   0.825651   x
            x  P                37        -0.917537  -0.329847   0.827365   x
            x  P                38        -0.322779  -0.622382   0.851127   x
            x  P                39        -0.405693  -0.834233   0.850229   x
            x  P                40        -0.612076  -0.333211   0.851978   x
            x  P                41        -0.658909  -0.581077   0.851160   x
            x  P                42        -0.459290  -0.408693   0.916577   x
            xxxxxxxxxxxxxxxxxxxxxxxxxxxxxxxxxxxxxxxxxxxxxxxxxxxxxxxxxxxxxxxxx
 
 
------------------------------------------------------------------------ <-- SCF
SCF loop      Energy           Fermi           Energy gain       Timer   <-- SCF
                               energy          per atom          (sec)   <-- SCF
------------------------------------------------------------------------ <-- SCF
Initial  -9.22389800E+003  0.00000000E+000                       472.41  <-- SCF
      1  -9.22389800E+003  2.03167945E+000   9.16873445E-009     477.46  <-- SCF
      2  -9.22389800E+003  2.03167945E+000   2.15371845E-010     484.27  <-- SCF
      3  -9.22389800E+003  2.03169455E+000  -4.29705131E-009     490.56  <-- SCF
      4  -9.22389800E+003  2.03170026E+000  -9.73003443E-011     496.61  <-- SCF
      5  -9.22389800E+003  2.03170301E+000  -3.45817651E-011     501.71  <-- SCF
      6  -9.22389800E+003  2.03170390E+000   3.01991985E-012     506.38  <-- SCF
      7  -9.22389800E+003  2.03170391E+000   4.71402122E-012     510.88  <-- SCF
------------------------------------------------------------------------ <-- SCF
 
Final energy, E             =  -9223.897997873     eV
Final free energy (E-TS)    =  -9223.897997873     eV
(energies not corrected for finite basis set)
 
NB est. 0K energy (E-0.5TS)      =  -9223.897997873     eV
 
 
 ******************************** Symmetrised Forces ********************************
 *                                                                                  *
 *                           Cartesian components (eV/A)                            *
 * -------------------------------------------------------------------------------- *
 *                         x                    y                    z              *
 *                                                                                  *
 * P               1      0.00069              0.00057              0.00077         *
 * P               2      0.00058             -0.00106             -0.00093         *
 * P               3      0.00002              0.00073             -0.00052         *
 * P               4      0.00092              0.00064             -0.00114         *
 * P               5     -0.00114             -0.00000             -0.00048         *
 * P               6      0.00162             -0.00020              0.00033         *
 * P               7      0.00116             -0.00075             -0.00057         *
 * P               8      0.00039             -0.00072             -0.00105         *
 * P               9      0.00007              0.00060             -0.00174         *
 * P              10      0.00032             -0.00012             -0.00201         *
 * P              11     -0.00074             -0.00014              0.00110         *
 * P              12      0.00045              0.00071              0.00004         *
 * P              13      0.00017             -0.00086              0.00130         *
 * P              14     -0.00089              0.00127              0.00022         *
 * P              15     -0.00121             -0.00061             -0.00025         *
 * P              16     -0.00051             -0.00003              0.00020         *
 * P              17     -0.00154             -0.00080             -0.00114         *
 * P              18      0.00095             -0.00056             -0.00092         *
 * P              19     -0.00095              0.00091              0.00088         *
 * P              20     -0.00056             -0.00077             -0.00001         *
 * P              21     -0.00082             -0.00089             -0.00039         *
 * P              22      0.00082              0.00089              0.00039         *
 * P              23      0.00056              0.00077              0.00001         *
 * P              24      0.00095             -0.00091             -0.00088         *
 * P              25     -0.00095              0.00056              0.00092         *
 * P              26      0.00154              0.00080              0.00114         *
 * P              27      0.00051              0.00003             -0.00020         *
 * P              28      0.00121              0.00061              0.00025         *
 * P              29      0.00089             -0.00127             -0.00022         *
 * P              30     -0.00017              0.00086             -0.00130         *
 * P              31     -0.00045             -0.00071             -0.00004         *
 * P              32      0.00074              0.00014             -0.00110         *
 * P              33     -0.00032              0.00012              0.00201         *
 * P              34     -0.00007             -0.00060              0.00174         *
 * P              35     -0.00039              0.00072              0.00105         *
 * P              36     -0.00116              0.00075              0.00057         *
 * P              37     -0.00162              0.00020             -0.00033         *
 * P              38      0.00114              0.00000              0.00048         *
 * P              39     -0.00092             -0.00064              0.00114         *
 * P              40     -0.00002             -0.00073              0.00052         *
 * P              41     -0.00058              0.00106              0.00093         *
 * P              42     -0.00069             -0.00057             -0.00077         *
 *                                                                                  *
 ************************************************************************************
 
 *********** Symmetrised Stress Tensor ***********
 *                                               *
 *          Cartesian components (GPa)           *
 * --------------------------------------------- *
 *             x             y             z     *
 *                                               *
 *  x     -0.005022      0.002600      0.001032  *
 *  y      0.002600     -0.001211     -0.000083  *
 *  z      0.001032     -0.000083     -0.003414  *
 *                                               *
 *  Pressure:    0.0032                          *
 *                                               *
 *************************************************
  
 +------------+-------------+-------------+-----------------+ <-- min LBFGS
 |    Step    |   lambda    |   F.delta'  |    enthalpy     | <-- min LBFGS
 +------------+-------------+-------------+-----------------+ <-- min LBFGS
 |  previous  |    0.000000 |    0.003521 |    -9223.897997 | <-- min LBFGS
 | trial step |    1.000000 |    0.003361 |    -9223.897998 | <-- min LBFGS
 +------------+-------------+-------------+-----------------+ <-- min LBFGS
  

--------------------------------------------------------------------------------
 LBFGS: improving iteration         2 with line minimization (lambda= 22.016504)
--------------------------------------------------------------------------------
 
+---------------- MEMORY AND SCRATCH DISK ESTIMATES PER PROCESS --------------+
|                                                     Memory          Disk    |
| Model and support data                              346.9 MB         0.0 MB |
| Electronic energy minimisation requirements          51.4 MB         0.0 MB |
| Geometry minimisation requirements                   59.3 MB         0.0 MB |
|                                               ----------------------------- |
| Approx. total storage required per process          457.5 MB         0.0 MB |
|                                                                             |
| Requirements will fluctuate during execution and may exceed these estimates |
+-----------------------------------------------------------------------------+
 
 
                           -------------------------------
                                      Unit Cell
                           -------------------------------
        Real Lattice(A)              Reciprocal Lattice(1/A)
     3.2994131   -12.1587782     0.0000171        0.000003087  -0.516760625  -0.158592332
     7.9902344     0.0000740    -0.0000855        0.786353638   0.213385053  -0.230003114
     4.4928300    -3.6693138    11.9562576        0.000005624   0.000002264   0.525512963
 
                       Lattice parameters(A)       Cell Angles
                    a =     12.598493          alpha =   70.240643
                    b =      7.990234          beta  =   69.205447
                    c =     13.289149          gamma =   74.818322
 
                Current cell volume =          1161.574263 A**3
                            density =             1.119944 amu/A**3
                                    =             1.859710 g/cm^3
 
                           -------------------------------
                                     Cell Contents
                           -------------------------------
 
            xxxxxxxxxxxxxxxxxxxxxxxxxxxxxxxxxxxxxxxxxxxxxxxxxxxxxxxxxxxxxxxxx
            x  Element         Atom        Fractional coordinates of atoms  x
            x                 Number           u          v          w      x
            x---------------------------------------------------------------x
            x  P                 1        -0.540712   0.408698   0.083429   x
            x  P                 2        -0.341077   0.581078   0.148833   x
            x  P                 3        -0.387932   0.333221   0.148017   x
            x  P                 4        -0.594313   0.834242   0.149767   x
            x  P                 5        -0.677217   0.622380   0.148868   x
            x  P                 6        -0.082461   0.329859   0.172640   x
            x  P                 7        -0.855726   0.103020   0.174347   x
            x  P                 8        -0.122419   0.071017   0.174192   x
            x  P                 9        -0.946535  -0.105467   0.176670   x
            x  P                10        -0.490544   0.700125   0.268776   x
            x  P                11        -0.243456   0.459952   0.271970   x
            x  P                12        -0.735690  -0.047220   0.273581   x
            x  P                13        -0.989654   0.228353   0.300588   x
            x  P                14        -0.472255   0.225639   0.328897   x
            x  P                15        -0.727577   0.480717   0.329776   x
            x  P                16        -0.213719  -0.017421   0.357140   x
            x  P                17        -0.987481  -0.243184   0.360402   x
            x  P                18        -0.579162   0.462410   0.388929   x
            x  P                19        -0.334327   0.223300   0.395600   x
            x  P                20        -0.823173  -0.286833   0.397134   x
            x  P                21        -0.080405  -0.008333   0.427584   x
            x  P                22        -0.919595   0.008333   0.572416   x
            x  P                23        -0.176827   0.286833   0.602866   x
            x  P                24        -0.665673  -0.223300   0.604400   x
            x  P                25        -0.420838  -0.462410   0.611071   x
            x  P                26        -0.012519   0.243184   0.639598   x
            x  P                27        -0.786281   0.017421   0.642860   x
            x  P                28        -0.272423  -0.480717   0.670224   x
            x  P                29        -0.527745  -0.225639   0.671103   x
            x  P                30        -0.010346  -0.228353   0.699412   x
            x  P                31        -0.264310   0.047220   0.726419   x
            x  P                32        -0.756544  -0.459952   0.728030   x
            x  P                33        -0.509456  -0.700125   0.731224   x
            x  P                34        -0.053465   0.105467   0.823330   x
            x  P                35        -0.877581  -0.071017   0.825808   x
            x  P                36        -0.144274  -0.103020   0.825653   x
            x  P                37        -0.917539  -0.329859   0.827360   x
            x  P                38        -0.322783  -0.622380   0.851132   x
            x  P                39        -0.405687  -0.834242   0.850233   x
            x  P                40        -0.612068  -0.333221   0.851983   x
            x  P                41        -0.658923  -0.581078   0.851167   x
            x  P                42        -0.459288  -0.408698   0.916571   x
            xxxxxxxxxxxxxxxxxxxxxxxxxxxxxxxxxxxxxxxxxxxxxxxxxxxxxxxxxxxxxxxxx
 
 
------------------------------------------------------------------------ <-- SCF
SCF loop      Energy           Fermi           Energy gain       Timer   <-- SCF
                               energy          per atom          (sec)   <-- SCF
------------------------------------------------------------------------ <-- SCF
Initial  -9.22389792E+003  0.00000000E+000                       594.09  <-- SCF
      1  -9.22389808E+003  2.03033281E+000   3.77865058E-006     599.10  <-- SCF
      2  -9.22389809E+003  2.03033273E+000   9.70946583E-008     606.72  <-- SCF
      3  -9.22389801E+003  2.03084862E+000  -1.89067271E-006     613.00  <-- SCF
      4  -9.22389801E+003  2.03094115E+000  -4.11242741E-008     619.62  <-- SCF
      5  -9.22389800E+003  2.03099207E+000  -1.40289272E-008     626.38  <-- SCF
      6  -9.22389800E+003  2.03100425E+000   5.60379273E-010     633.11  <-- SCF
      7  -9.22389800E+003  2.03100633E+000   9.13120642E-010     639.70  <-- SCF
      8  -9.22389800E+003  2.03100587E+000   2.20085866E-010     645.04  <-- SCF
      9  -9.22389800E+003  2.03100524E+000   3.56497855E-011     649.69  <-- SCF
     10  -9.22389800E+003  2.03100479E+000   5.89252653E-012     654.30  <-- SCF
     11  -9.22389800E+003  2.03100448E+000   8.10222398E-013     658.88  <-- SCF
------------------------------------------------------------------------ <-- SCF
 
Final energy, E             =  -9223.898004659     eV
Final free energy (E-TS)    =  -9223.898004659     eV
(energies not corrected for finite basis set)
 
NB est. 0K energy (E-0.5TS)      =  -9223.898004659     eV
 
 
 ******************************** Symmetrised Forces ********************************
 *                                                                                  *
 *                           Cartesian components (eV/A)                            *
 * -------------------------------------------------------------------------------- *
 *                         x                    y                    z              *
 *                                                                                  *
 * P               1      0.00151              0.00024             -0.00105         *
 * P               2     -0.00138              0.00009              0.00076         *
 * P               3      0.00090             -0.00047              0.00088         *
 * P               4     -0.00064              0.00116             -0.00068         *
 * P               5     -0.00015             -0.00004              0.00100         *
 * P               6     -0.00028              0.00025              0.00154         *
 * P               7     -0.00032             -0.00044              0.00051         *
 * P               8      0.00200             -0.00058             -0.00031         *
 * P               9      0.00068             -0.00055             -0.00007         *
 * P              10     -0.00041             -0.00062             -0.00197         *
 * P              11     -0.00108              0.00068              0.00074         *
 * P              12     -0.00059              0.00112             -0.00028         *
 * P              13     -0.00041             -0.00028              0.00051         *
 * P              14      0.00162             -0.00065             -0.00112         *
 * P              15      0.00123             -0.00118             -0.00151         *
 * P              16      0.00076             -0.00180             -0.00048         *
 * P              17      0.00050             -0.00066             -0.00269         *
 * P              18      0.00025              0.00002             -0.00123         *
 * P              19     -0.00155              0.00135             -0.00072         *
 * P              20     -0.00071             -0.00025             -0.00084         *
 * P              21     -0.00197              0.00028             -0.00048         *
 * P              22      0.00197             -0.00028              0.00048         *
 * P              23      0.00071              0.00025              0.00084         *
 * P              24      0.00155             -0.00135              0.00072         *
 * P              25     -0.00025             -0.00002              0.00123         *
 * P              26     -0.00050              0.00066              0.00269         *
 * P              27     -0.00076              0.00180              0.00048         *
 * P              28     -0.00123              0.00118              0.00151         *
 * P              29     -0.00162              0.00065              0.00112         *
 * P              30      0.00041              0.00028             -0.00051         *
 * P              31      0.00059             -0.00112              0.00028         *
 * P              32      0.00108             -0.00068             -0.00074         *
 * P              33      0.00041              0.00062              0.00197         *
 * P              34     -0.00068              0.00055              0.00007         *
 * P              35     -0.00200              0.00058              0.00031         *
 * P              36      0.00032              0.00044             -0.00051         *
 * P              37      0.00028             -0.00025             -0.00154         *
 * P              38      0.00015              0.00004             -0.00100         *
 * P              39      0.00064             -0.00116              0.00068         *
 * P              40     -0.00090              0.00047             -0.00088         *
 * P              41      0.00138             -0.00009             -0.00076         *
 * P              42     -0.00151             -0.00024              0.00105         *
 *                                                                                  *
 ************************************************************************************
 
 *********** Symmetrised Stress Tensor ***********
 *                                               *
 *          Cartesian components (GPa)           *
 * --------------------------------------------- *
 *             x             y             z     *
 *                                               *
 *  x      0.002867      0.000519     -0.000821  *
 *  y      0.000519      0.003808     -0.000255  *
 *  z     -0.000821     -0.000255      0.002808  *
 *                                               *
 *  Pressure:   -0.0032                          *
 *                                               *
 *************************************************
  
 +------------+-------------+-------------+-----------------+ <-- min LBFGS
 |    Step    |   lambda    |   F.delta'  |    enthalpy     | <-- min LBFGS
 +------------+-------------+-------------+-----------------+ <-- min LBFGS
 |  previous  |    0.000000 |    0.003521 |    -9223.897997 | <-- min LBFGS
 | trial step |    1.000000 |    0.003361 |    -9223.897998 | <-- min LBFGS
 |  line step |   22.016504 | -1.246E-006 |    -9223.898005 | <-- min LBFGS
 +------------+-------------+-------------+-----------------+ <-- min LBFGS
  
 LBFGS: finished iteration     2 with enthalpy= -9.22389800E+003 eV
  
 +-----------+-----------------+-----------------+------------+-----+ <-- LBFGS
 | Parameter |      value      |    tolerance    |    units   | OK? | <-- LBFGS
 +-----------+-----------------+-----------------+------------+-----+ <-- LBFGS
[...]
 * -------------------------------------------------------- *
 *                         x            y            z      *
 *                                                          *
 * P               1     -0.00028      0.00024     -0.00042 *
 * P               2      0.00041     -0.00013      0.00028 *
 * P               3      0.00008      0.00005      0.00006 *
 * P               4      0.00071     -0.00062     -0.00031 *
 * P               5     -0.00008     -0.00030      0.00004 *
 * P               6      0.00002      0.00037      0.00037 *
 * P               7     -0.00010     -0.00017     -0.00007 *
 * P               8     -0.00037      0.00023      0.00034 *
 * P               9     -0.00007     -0.00005      0.00015 *
 * P              10      0.00035      0.00050     -0.00035 *
 * P              11      0.00082      0.00045      0.00013 *
 * P              12      0.00026     -0.00006     -0.00044 *
 * P              13     -0.00021      0.00027     -0.00039 *
 * P              14      0.00031      0.00028     -0.00040 *
 * P              15      0.00055     -0.00006     -0.00046 *
 * P              16      0.00025      0.00033      0.00002 *
 * P              17     -0.00016     -0.00067      0.00018 *
 * P              18      0.00007     -0.00020     -0.00002 *
 * P              19      0.00030      0.00007     -0.00044 *
 * P              20      0.00004     -0.00089     -0.00004 *
 * P              21     -0.00068     -0.00017      0.00011 *
 * P              22      0.00068      0.00017     -0.00011 *
 * P              23     -0.00004      0.00089      0.00004 *
 * P              24     -0.00030     -0.00007      0.00044 *
 * P              25     -0.00007      0.00020      0.00002 *
 * P              26      0.00016      0.00067     -0.00018 *
 * P              27     -0.00025     -0.00033     -0.00002 *
 * P              28     -0.00055      0.00006      0.00046 *
 * P              29     -0.00031     -0.00028      0.00040 *
 * P              30      0.00021     -0.00027      0.00039 *
 * P              31     -0.00026      0.00006      0.00044 *
 * P              32     -0.00082     -0.00045     -0.00013 *
 * P              33     -0.00035     -0.00050      0.00035 *
 * P              34      0.00007      0.00005     -0.00015 *
 * P              35      0.00037     -0.00023     -0.00034 *
 * P              36      0.00010      0.00017      0.00007 *
 * P              37     -0.00002     -0.00037     -0.00037 *
 * P              38      0.00008      0.00030     -0.00004 *
 * P              39     -0.00071      0.00062      0.00031 *
 * P              40     -0.00008     -0.00005     -0.00006 *
 * P              41     -0.00041      0.00013     -0.00028 *
 * P              42      0.00028     -0.00024      0.00042 *
 *                                                          *
 ************************************************************
 
 *********** Symmetrised Stress Tensor ***********
 *                                               *
 *          Cartesian components (GPa)           *
 * --------------------------------------------- *
 *             x             y             z     *
 *                                               *
 *  x      0.000260      0.000532      0.000132  *
 *  y      0.000532     -0.000462     -0.000231  *
 *  z      0.000132     -0.000231     -0.000073  *
 *                                               *
 *  Pressure:    0.0001                          *
 *                                               *
 *************************************************
 
 Pseudo atomic calculation performed for P 3s2 3p3
 
 Converged in 33 iterations to a total energy of -214.2223 eV
Charge spilling parameter for spin component 1 = 1.54%
 
            Orbital Populations       
     Ion    Atom   Orbital             Charge
  -------------------------------------------
      P     1      S                    1.779
      P     1      Px                   1.314
      P     1      Py                   0.965
      P     1      Pz                   0.949
      P     2      S                    1.762
      P     2      Px                   1.009
      P     2      Py                   0.963
      P     2      Pz                   1.233
      P     3      S                    1.750
      P     3      Px                   1.110
      P     3      Py                   1.116
      P     3      Pz                   1.042
      P     4      S                    1.762
      P     4      Px                   1.030
      P     4      Py                   0.942
      P     4      Pz                   1.234
      P     5      S                    1.750
      P     5      Px                   0.924
      P     5      Py                   1.301
      P     5      Pz                   1.040
      P     6      S                    1.755
      P     6      Px                   1.022
      P     6      Py                   0.954
      P     6      Pz                   1.253
      P     7      S                    1.754
      P     7      Px                   1.031
      P     7      Py                   0.943
      P     7      Pz                   1.256
      P     8      S                    1.795
      P     8      Px                   0.990
      P     8      Py                   1.097
      P     8      Pz                   1.128
      P     9      S                    1.794
      P     9      Px                   1.145
      P     9      Py                   0.950
      P     9      Pz                   1.119
      P    10      S                    1.773
      P    10      Px                   1.281
      P    10      Py                   1.003
      P    10      Pz                   0.965
      P    11      S                    1.761
      P    11      Px                   1.317
      P    11      Py                   0.955
      P    11      Pz                   0.983
      P    12      S                    1.761
      P    12      Px                   1.259
      P    12      Py                   1.011
      P    12      Pz                   0.983
      P    13      S                    1.790
      P    13      Px                   1.273
      P    13      Py                   0.996
      P    13      Pz                   0.941
      P    14      S                    1.762
      P    14      Px                   1.269
      P    14      Py                   0.985
      P    14      Pz                   0.947
      P    15      S                    1.763
      P    15      Px                   1.258
      P    15      Py                   0.997
      P    15      Pz                   0.947
      P    16      S                    1.755
      P    16      Px                   1.270
      P    16      Py                   0.973
      P    16      Pz                   0.983
      P    17      S                    1.756
      P    17      Px                   1.247
      P    17      Py                   0.986
      P    17      Pz                   0.987
      P    18      S                    1.771
      P    18      Px                   0.927
      P    18      Py                   0.948
      P    18      Pz                   1.379
      P    19      S                    1.760
      P    19      Px                   0.947
      P    19      Py                   0.926
      P    19      Pz                   1.388
      P    20      S                    1.758
      P    20      Px                   0.938
      P    20      Py                   0.948
      P    20      Pz                   1.383
      P    21      S                    1.780
      P    21      Px                   0.934
      P    21      Py                   0.967
      P    21      Pz                   1.346
      P    22      S                    1.780
      P    22      Px                   0.934
      P    22      Py                   0.967
      P    22      Pz                   1.346
      P    23      S                    1.758
      P    23      Px                   0.938
      P    23      Py                   0.948
      P    23      Pz                   1.383
      P    24      S                    1.760
      P    24      Px                   0.947
      P    24      Py                   0.926
      P    24      Pz                   1.388
      P    25      S                    1.771
      P    25      Px                   0.927
      P    25      Py                   0.948
      P    25      Pz                   1.379
      P    26      S                    1.756
      P    26      Px                   1.247
      P    26      Py                   0.986
      P    26      Pz                   0.987
      P    27      S                    1.755
      P    27      Px                   1.270
      P    27      Py                   0.973
      P    27      Pz                   0.983
      P    28      S                    1.763
      P    28      Px                   1.258
      P    28      Py                   0.997
      P    28      Pz                   0.947
      P    29      S                    1.762
      P    29      Px                   1.269
      P    29      Py                   0.985
      P    29      Pz                   0.947
      P    30      S                    1.790
      P    30      Px                   1.273
      P    30      Py                   0.996
      P    30      Pz                   0.941
      P    31      S                    1.761
      P    31      Px                   1.259
      P    31      Py                   1.011
      P    31      Pz                   0.983
      P    32      S                    1.761
      P    32      Px                   1.317
      P    32      Py                   0.955
      P    32      Pz                   0.983
      P    33      S                    1.773
      P    33      Px                   1.281
      P    33      Py                   1.003
      P    33      Pz                   0.965
      P    34      S                    1.794
      P    34      Px                   1.145
      P    34      Py                   0.950
      P    34      Pz                   1.119
      P    35      S                    1.795
      P    35      Px                   0.990
      P    35      Py                   1.097
      P    35      Pz                   1.128
      P    36      S                    1.754
      P    36      Px                   1.031
      P    36      Py                   0.943
      P    36      Pz                   1.256
      P    37      S                    1.755
      P    37      Px                   1.022
      P    37      Py                   0.954
      P    37      Pz                   1.253
      P    38      S                    1.750
      P    38      Px                   0.924
      P    38      Py                   1.301
      P    38      Pz                   1.040
      P    39      S                    1.762
      P    39      Px                   1.030
      P    39      Py                   0.942
      P    39      Pz                   1.234
      P    40      S                    1.750
      P    40      Px                   1.110
      P    40      Py                   1.116
      P    40      Pz                   1.042
      P    41      S                    1.762
      P    41      Px                   1.009
      P    41      Py                   0.963
      P    41      Pz                   1.233
      P    42      S                    1.779
      P    42      Px                   1.314
      P    42      Py                   0.965
      P    42      Pz                   0.949
  -------------------------------------------
                           Total:     210.000
  -------------------------------------------
 
     Atomic Populations (Mulliken)
     -----------------------------
Species          Ion     s      p      d      f     Total  Charge (e)
=====================================================================
  P               1     1.78   3.23   0.00   0.00   5.01    -0.01
  P               2     1.76   3.20   0.00   0.00   4.97     0.03
  P               3     1.75   3.27   0.00   0.00   5.02    -0.02
  P               4     1.76   3.21   0.00   0.00   4.97     0.03
  P               5     1.75   3.27   0.00   0.00   5.02    -0.02
  P               6     1.75   3.23   0.00   0.00   4.98     0.02
  P               7     1.75   3.23   0.00   0.00   4.98     0.02
  P               8     1.80   3.22   0.00   0.00   5.01    -0.01
  P               9     1.79   3.21   0.00   0.00   5.01    -0.01
  P              10     1.77   3.25   0.00   0.00   5.02    -0.02
  P              11     1.76   3.25   0.00   0.00   5.02    -0.02
  P              12     1.76   3.25   0.00   0.00   5.01    -0.01
  P              13     1.79   3.21   0.00   0.00   5.00    -0.00
  P              14     1.76   3.20   0.00   0.00   4.96     0.04
  P              15     1.76   3.20   0.00   0.00   4.96     0.04
  P              16     1.75   3.23   0.00   0.00   4.98     0.02
  P              17     1.76   3.22   0.00   0.00   4.98     0.02
  P              18     1.77   3.25   0.00   0.00   5.03    -0.03
  P              19     1.76   3.26   0.00   0.00   5.02    -0.02
  P              20     1.76   3.27   0.00   0.00   5.03    -0.03
  P              21     1.78   3.25   0.00   0.00   5.03    -0.03
  P              22     1.78   3.25   0.00   0.00   5.03    -0.03
  P              23     1.76   3.27   0.00   0.00   5.03    -0.03
  P              24     1.76   3.26   0.00   0.00   5.02    -0.02
  P              25     1.77   3.25   0.00   0.00   5.03    -0.03
  P              26     1.76   3.22   0.00   0.00   4.98     0.02
  P              27     1.75   3.23   0.00   0.00   4.98     0.02
  P              28     1.76   3.20   0.00   0.00   4.96     0.04
  P              29     1.76   3.20   0.00   0.00   4.96     0.04
  P              30     1.79   3.21   0.00   0.00   5.00    -0.00
  P              31     1.76   3.25   0.00   0.00   5.01    -0.01
  P              32     1.76   3.25   0.00   0.00   5.02    -0.02
  P              33     1.77   3.25   0.00   0.00   5.02    -0.02
  P              34     1.79   3.21   0.00   0.00   5.01    -0.01
  P              35     1.80   3.22   0.00   0.00   5.01    -0.01
  P              36     1.75   3.23   0.00   0.00   4.98     0.02
  P              37     1.75   3.23   0.00   0.00   4.98     0.02
  P              38     1.75   3.27   0.00   0.00   5.02    -0.02
  P              39     1.76   3.21   0.00   0.00   4.97     0.03
  P              40     1.75   3.27   0.00   0.00   5.02    -0.02
  P              41     1.76   3.20   0.00   0.00   4.97     0.03
  P              42     1.78   3.23   0.00   0.00   5.01    -0.01
=====================================================================
 
                 Bond                   Population      Length (A)
======================================================================
              P 24 -- P 27                   0.51        2.20280
              P 16 -- P 19                   0.51        2.20280
              P 6  -- P 11                   0.51        2.20424
              P 32 -- P 37                   0.51        2.20424
              P 7  -- P 12                   0.52        2.20481
              P 31 -- P 36                   0.52        2.20481
              P 2  -- P 11                   0.51        2.20501
              P 32 -- P 41                   0.51        2.20501
              P 31 -- P 39                   0.51        2.20598
              P 4  -- P 12                   0.51        2.20598
              P 23 -- P 26                   0.52        2.20647
              P 17 -- P 20                   0.52        2.20647
              P 14 -- P 19                   0.52        2.20683
              P 24 -- P 29                   0.52        2.20683
              P 15 -- P 20                   0.51        2.21069
              P 23 -- P 28                   0.51        2.21069
              P 30 -- P 37                   0.50        2.21339
              P 6  -- P 13                   0.50        2.21339
              P 40 -- P 41                   0.52        2.21406
              P 2  -- P 3                    0.52        2.21406
              P 4  -- P 5                    0.52        2.21476
              P 38 -- P 39                   0.52        2.21476
              P 30 -- P 36                   0.50        2.21498
              P 7  -- P 13                   0.50        2.21498
              P 29 -- P 40                   0.52        2.21644
              P 3  -- P 14                   0.52        2.21644
              P 5  -- P 15                   0.52        2.21714
              P 28 -- P 38                   0.52        2.21714
              P 22 -- P 27                   0.49        2.21968
              P 16 -- P 21                   0.49        2.21968
              P 22 -- P 26                   0.51        2.21989
              P 17 -- P 21                   0.51        2.21989
              P 2  -- P 10                   0.49        2.22404
              P 33 -- P 41                   0.49        2.22404
              P 4  -- P 10                   0.49        2.22423
              P 33 -- P 39                   0.49        2.22423
              P 14 -- P 18                   0.49        2.22549
              P 25 -- P 29                   0.49        2.22549
              P 15 -- P 18                   0.49        2.22660
              P 25 -- P 28                   0.49        2.22660
              P 27 -- P 35                   0.51        2.23873
              P 8  -- P 16                   0.51        2.23873
              P 1  -- P 3                    0.42        2.24060
              P 40 -- P 42                   0.42        2.24060
              P 34 -- P 36                   0.51        2.24104
              P 7  -- P 9                    0.51        2.24104
              P 26 -- P 34                   0.51        2.24151
              P 9  -- P 17                   0.51        2.24151
              P 38 -- P 42                   0.42        2.24326
              P 1  -- P 5                    0.42        2.24326
              P 35 -- P 37                   0.51        2.24472
              P 6  -- P 8                    0.51        2.24472
              P 1  -- P 42                   0.42        2.25332
              P 25 -- P 33                   0.51        2.27994
              P 10 -- P 18                   0.51        2.27994
              P 23 -- P 31                   0.43        2.29601
              P 12 -- P 20                   0.43        2.29601
              P 34 -- P 35                   0.43        2.29834
              P 8  -- P 9                    0.43        2.29834
              P 24 -- P 32                   0.43        2.29860
              P 11 -- P 19                   0.43        2.29860
              P 22 -- P 30                   0.47        2.31011
              P 13 -- P 21                   0.47        2.31011
              P 16 -- P 17                  -0.20        2.95261
              P 26 -- P 27                  -0.20        2.95261
              P 36 -- P 37                  -0.20        2.95747
              P 6  -- P 7                   -0.20        2.95747
======================================================================
 

Writing analysis data to P-OQMD_24584-CollCode391323.castep_bin

Writing model to P-OQMD_24584-CollCode391323.check
Initialisation time =      8.46 s
Calculation time    =     14.99 s
Finalisation time   =      6.80 s
Total time          =     30.25 s
Peak Memory Use     = 1031708 kB
  
Overall parallel efficiency rating: Satisfactory (66%)                          
  
Data was distributed by:-
G-vector (320-way); efficiency rating: Satisfactory (67%)                       
  
Parallel notes:
1) Calculation only took 23.5 s, so efficiency estimates may be inaccurate.     
