 +-------------------------------------------------+
 |                                                 |
 |      CCC   AA    SSS  TTTTT  EEEEE  PPPP        |
 |     C     A  A  S       T    E      P   P       |
 |     C     AAAA   SS     T    EEE    PPPP        |
 |     C     A  A     S    T    E      P           |
 |      CCC  A  A  SSS     T    EEEEE  P           |
 |                                                 |
 +-------------------------------------------------+
 |                                                 |
 | Welcome to Academic Release CASTEP version 18.1 |          
 | Ab Initio Total Energy Program                  |
 |                                                 |
 | Authors:                                        |
 | M. Segall, M. Probert, C. Pickard, P. Hasnip,   |
 | S. Clark, K. Refson, J. R. Yates, M. Payne      |
 |                                                 |
 | Contributors:                                   |
 | P. Lindan, P. Haynes, J. White, V. Milman,      |
 | N. Govind, M. Gibson, P. Tulip, V. Cocula,      |
 | B. Montanari, D. Quigley, M. Glover,            |
 | L. Bernasconi, A. Perlov, M. Plummer,           |
 | E. McNellis, J. Meyer, J. Gale, D. Jochym       |
 | J. Aarons, B. Walker, R. Gillen, D. Jones       |
 | T. Green, I. J. Bush, C. J. Armstrong,          |
 | E. J. Higgins, E. L. Brown, M. S. McFly,        |
 | J. Wilkins, B-C. Shih, P. J. P. Byrne           |
 |                                                 |
 | Copyright (c) 2000 - 2017                       |
 |                                                 |
 |     Distributed under the terms of an           |
 |     Agreement between the United Kingdom        |
 |     Car-Parrinello (UKCP) Consortium,           |
 |     Daresbury Laboratory and Accelrys, Inc.     |
 |                                                 |
 | Please cite                                     |
 |                                                 |
 |     "First principles methods using CASTEP"     |
 |                                                 |
 |         Zeitschrift fuer Kristallographie       |
 |           220(5-6) pp. 567-570 (2005)           |
 |                                                 |
 | S. J. Clark, M. D. Segall, C. J. Pickard,       |
 | P. J. Hasnip, M. J. Probert, K. Refson,         |
 | M. C. Payne                                     |
 |                                                 |
 |       in all publications arising from          |
 |              your use of CASTEP                 |
 |                                                 |
 +-------------------------------------------------+
 
 
 Compiled for linux_x86_64_ifort17-TCM on Fri, 20 Apr 2018 19:07:16 +0100
 from code version baee3ec33e17+  Mon, 11 Dec 2017 11:05:17 +0000
 Compiler: Intel Fortran 17.0.5.239; Optimisation: fast
 MATHLIBS: Intel MKL(2017.0.4) (LAPACK version 3.7.0)
 FFT Lib : mkl
 Fundamental constants values: CODATA 2014
 
 Run started: Tue, 08 Oct 2019 14:00:23 +0100
 Info: number of up-spin electrons is not equal to the
       number of down-spins but spin_polarized=false
     - consider setting spin_polarized=true.
 Warning in parameters_read: it appears you may not have specified enough 
                           - extra bands so you may have trouble with metals
                           - convergence as a consequence. Suggest you 
                           - consider setting nextra_bands=4 at least.
 
 Pseudo atomic calculation performed for Li 1s2 2s1
 
 Converged in 43 iterations to a total energy of -188.0228 eV
 
 
 Pseudo atomic calculation performed for C 2s2 2p2
 
 Converged in 91 iterations to a total energy of -145.7942 eV
 
 Calculation parallelised over 12 processes.
 Data is distributed by k-point(12-way)

 ************************************ Title ************************************
 

 ***************************** General Parameters ******************************
  
 output verbosity                               : normal  (1)
 write checkpoint data to                       : _LiC.check
 type of calculation                            : single point energy
 stress calculation                             : on
 density difference calculation                 : off
 electron localisation func (ELF) calculation   : off
 Hirshfeld analysis                             : off
 unlimited duration calculation
 timing information                             : on
 memory usage estimate                          : on
 write extra output files                       : on
 write final potential to formatted file        : off
 write final density to formatted file          : off
 write structure in CELL formatted file         : on
 write BibTeX reference list                    : off
 write OTFG pseudopotential files               : on
 write electrostatic potential file             : on
 write bands file                               : on
 checkpoint writing                             : off
  
 output         length unit                     : A
 output           mass unit                     : amu
 output           time unit                     : ps
 output         charge unit                     : e
 output           spin unit                     : hbar/2
 output         energy unit                     : eV
 output          force unit                     : eV/A
 output       velocity unit                     : A/ps
 output       pressure unit                     : GPa
 output     inv_length unit                     : 1/A
 output      frequency unit                     : cm-1
 output force constant unit                     : eV/A**2
 output         volume unit                     : A**3
 output   IR intensity unit                     : (D/A)**2/amu
 output         dipole unit                     : D
 output         efield unit                     : eV/A/e
 output        entropy unit                     : J/mol/K
  
 wavefunctions paging                           : none
 random number generator seed                   : randomised (140023731)
 data distribution                              : optimal for this architecture
 optimization strategy                          : maximize speed(+++)

 *********************** Exchange-Correlation Parameters ***********************
  
 using functional                               : Perdew Burke Ernzerhof
 relativistic treatment                         : Koelling-Harmon
 DFT+D: Semi-empirical dispersion correction    : off

 ************************* Pseudopotential Parameters **************************
  
 pseudopotential representation                 : reciprocal space
 <beta|phi> representation                      : reciprocal space
 spin-orbit coupling                            : off

 **************************** Basis Set Parameters *****************************
  
 plane wave basis set cut-off                   :   300.0000   eV
 size of standard grid                          :     1.7500
 size of   fine   gmax                          :    15.5288   1/A
 finite basis set correction                    : none

 **************************** Electronic Parameters ****************************
  
 number of  electrons                           :  7.000    
 net charge of system                           :  0.000    
 treating system as non-spin-polarized
 number of bands                                :          6

 ********************* Electronic Minimization Parameters **********************
  
 Method: Treating system as metallic with density mixing treatment of electrons,
         and number of  SD  steps               :          1
         and number of  CG  steps               :          4
  
 total energy / atom convergence tol.           : 0.1000E-14   eV
 eigen-energy convergence tolerance             : 0.3333E-15   eV
 max force / atom convergence tol.              : ignored
 convergence tolerance window                   :          3   cycles
 max. number of SCF cycles                      :         15
 number of fixed-spin iterations                :         10
 smearing scheme                                : Gaussian
 smearing width                                 : 0.2000       eV
 Fermi energy convergence tolerance             : 0.2721E-13   eV
 periodic dipole correction                     : NONE

 ************************** Density Mixing Parameters **************************
  
 density-mixing scheme                          : Broyden
 max. length of mixing history                  :         20
 charge density mixing amplitude                : 0.8000    
 cut-off energy for mixing                      :  300.0       eV

 *********************** Population Analysis Parameters ************************
  
 Population analysis with cutoff                :  3.000       A
 Population analysis output                     : summary and pdos components

 *******************************************************************************
  
 
                           -------------------------------
                                      Unit Cell
                           -------------------------------
        Real Lattice(A)                      Reciprocal Lattice(1/A)
     2.0191222     0.0000000     0.0000000        3.111840039  -3.111840039   0.000000000
     2.0191222     2.0191222     0.0000000        0.000000000   3.111840039   0.000000000
     0.0000000     0.0000000     3.3221670        0.000000000   0.000000000   1.891291229
 
                       Lattice parameters(A)       Cell Angles
                    a =      2.019122          alpha =   90.000000
                    b =      2.855470          beta  =   90.000000
                    c =      3.322167          gamma =   45.000000
 
                       Current cell volume =            13.543991       A**3
                                   density =             1.399270   AMU/A**3
                                           =             2.323542     g/cm^3
 
                           -------------------------------
                                     Cell Contents
                           -------------------------------
                         Total number of ions in cell =    2
                      Total number of species in cell =    2
                        Max number of any one species =    1
 
            xxxxxxxxxxxxxxxxxxxxxxxxxxxxxxxxxxxxxxxxxxxxxxxxxxxxxxxxxxxx
            x  Element    Atom        Fractional coordinates of atoms  x
            x            Number           u          v          w      x
            x----------------------------------------------------------x
            x  Li           1         0.000000   0.500002   0.500000   x 
            x  C            1         0.000000   0.000002   0.000000   x 
            xxxxxxxxxxxxxxxxxxxxxxxxxxxxxxxxxxxxxxxxxxxxxxxxxxxxxxxxxxxx
 
 
                         No user defined ionic velocities
 
                           -------------------------------
                                   Details of Species
                           -------------------------------
 
                               Mass of species in AMU
                                    Li    6.9410000
                                    C   12.0107000
 
                          Electric Quadrupole Moment (Barn)
                                    Li   -0.0401000 Isotope  7
                                    C    0.0332700 Isotope 11
 
                          Files used for pseudopotentials:
                                    Li Li_00PBE.usp
                                    C C_00PBE.usp
 
                           -------------------------------
                              k-Points For BZ Sampling
                           -------------------------------
                       MP grid size for SCF calculation is 11  8  5
                            with an offset of   0.000  0.000  0.000
                       Number of kpoints used =           132
 
                           -------------------------------
                               Symmetry and Constraints
                           -------------------------------
 
                      Maximum deviation from symmetry = 0.470004E-15     ANG
 
                      Number of symmetry operations   =          16
                      Number of ionic constraints     =           3
                      Point group of crystal =    15: D4h, 4/mmm, 4/m 2/m 2/m
                      Space group of crystal =   123: P4/mmm, -P 4 2
 
             Set iprint > 1 for details on symmetry rotations/translations
 
                         Centre of mass is constrained
             Set iprint > 1 for details of linear ionic constraints
 
                         Number of cell constraints= 2
                         Cell constraints are:  1 2 3 0 0 6
 
                         External pressure/stress (GPa)
                          0.00000   0.00000   0.00000
                                    0.00000   0.00000
                                              0.00000
  
+---------------- MEMORY AND SCRATCH DISK ESTIMATES PER PROCESS --------------+
|                                                     Memory          Disk    |
| Baseline code, static data and system overhead      376.0 MB         0.0 MB |
| BLAS internal memory storage                          0.0 MB         0.0 MB |
| Model and support data                                5.5 MB         0.0 MB |
| Electronic energy minimisation requirements           1.0 MB         0.0 MB |
| Force calculation requirements                        0.3 MB         0.0 MB |
| Stress calculation requirements                       0.4 MB         0.0 MB |
|                                               ----------------------------- |
| Approx. total storage required per process          382.5 MB         0.0 MB |
|                                                                             |
| Requirements will fluctuate during execution and may exceed these estimates |
+-----------------------------------------------------------------------------+
Calculating total energy with cut-off of  300.000 eV.
------------------------------------------------------------------------ <-- SCF
SCF loop      Energy           Fermi           Energy gain       Timer   <-- SCF
                               energy          per atom          (sec)   <-- SCF
------------------------------------------------------------------------ <-- SCF
Initial  -1.27243013E+002  0.00000000E+000                         0.42  <-- SCF
      1  -3.32194012E+002  8.93386555E+000   1.02475499E+002       0.49  <-- SCF
      2  -3.42214271E+002  6.65153901E+000   5.01012972E+000       0.54  <-- SCF
      3  -3.42470296E+002  6.51250525E+000   1.28012282E-001       0.59  <-- SCF
      4  -3.42430784E+002  6.61563095E+000  -1.97558032E-002       0.65  <-- SCF
      5  -3.42430125E+002  6.63880140E+000  -3.29437135E-004       0.71  <-- SCF
      6  -3.42430096E+002  6.63879794E+000  -1.43857270E-005       0.77  <-- SCF
      7  -3.42430079E+002  6.63883872E+000  -8.81914397E-006       0.83  <-- SCF
      8  -3.42430077E+002  6.63879246E+000  -8.10427238E-007       0.89  <-- SCF
      9  -3.42430077E+002  6.63877896E+000  -1.32188883E-007       0.95  <-- SCF
     10  -3.42430077E+002  6.63877887E+000   3.61989529E-009       1.02  <-- SCF
     11  -3.42430077E+002  6.63877909E+000   3.73911882E-009       1.11  <-- SCF
     12  -3.42430077E+002  6.63877905E+000   1.38017012E-009       1.19  <-- SCF
     13  -3.42430077E+002  6.63877906E+000   2.48187003E-010       1.28  <-- SCF
     14  -3.42430077E+002  6.63877906E+000   5.54426900E-011       1.36  <-- SCF
     15  -3.42430077E+002  6.63877906E+000   1.54678821E-011       1.44  <-- SCF
------------------------------------------------------------------------ <-- SCF
 *Warning* max. SCF cycles performed but system has not reached the groundstate.
  
Current total energy, E     =  -342.4165414058     eV
Current free energy (E-TS)  =  -342.4300768611     eV
(energies not corrected for finite basis set)
 
NB est. 0K energy (E-0.5TS)      =  -342.4233091334     eV
 
  ****************************************************************************
  Warning: electronic minimisation did not converge when finding ground state.
  ****************************************************************************
  Writing checkpoint file...
  
Overall parallel efficiency rating: Satisfactory (66%)                          
  
Data was distributed by:-
k-point (12-way); efficiency rating: Good (73%)                                 
  
Parallel notes:
1) Calculation only took 1.4 s, so efficiency estimates may be inaccurate.      
