 +-------------------------------------------------+
 |                                                 |
 |      CCC   AA    SSS  TTTTT  EEEEE  PPPP        |
 |     C     A  A  S       T    E      P   P       |
 |     C     AAAA   SS     T    EEE    PPPP        |
 |     C     A  A     S    T    E      P           |
 |      CCC  A  A  SSS     T    EEEEE  P           |
 |                                                 |
 +-------------------------------------------------+
 |                                                 |
 | Welcome to Academic Release CASTEP version 18.1 |          
 | Ab Initio Total Energy Program                  |
 |                                                 |
 | Authors:                                        |
 | M. Segall, M. Probert, C. Pickard, P. Hasnip,   |
 | S. Clark, K. Refson, J. R. Yates, M. Payne      |
 |                                                 |
 | Contributors:                                   |
 | P. Lindan, P. Haynes, J. White, V. Milman,      |
 | N. Govind, M. Gibson, P. Tulip, V. Cocula,      |
 | B. Montanari, D. Quigley, M. Glover,            |
 | L. Bernasconi, A. Perlov, M. Plummer,           |
 | E. McNellis, J. Meyer, J. Gale, D. Jochym       |
 | J. Aarons, B. Walker, R. Gillen, D. Jones       |
 | T. Green, I. J. Bush, C. J. Armstrong,          |
 | E. J. Higgins, E. L. Brown, M. S. McFly,        |
 | J. Wilkins, B-C. Shih, P. J. P. Byrne           |
 |                                                 |
 | Copyright (c) 2000 - 2017                       |
 |                                                 |
 |     Distributed under the terms of an           |
 |     Agreement between the United Kingdom        |
 |     Car-Parrinello (UKCP) Consortium,           |
 |     Daresbury Laboratory and Accelrys, Inc.     |
 |                                                 |
 | Please cite                                     |
 |                                                 |
 |     "First principles methods using CASTEP"     |
 |                                                 |
 |         Zeitschrift fuer Kristallographie       |
 |           220(5-6) pp. 567-570 (2005)           |
 |                                                 |
 | S. J. Clark, M. D. Segall, C. J. Pickard,       |
 | P. J. Hasnip, M. J. Probert, K. Refson,         |
 | M. C. Payne                                     |
 |                                                 |
 |       in all publications arising from          |
 |              your use of CASTEP                 |
 |                                                 |
 +-------------------------------------------------+
 
 
 Compiled for linux_x86_64_ifort16 on Wed, 14 Feb 2018 22:46:17 +0000
 from code version baee3ec33e17+  Mon, 11 Dec 2017 11:05:17 +0000
 Compiler: Intel Fortran 16.0.3.210; Optimisation: fast
 MATHLIBS: Intel MKL(11.3.3) (LAPACK version 3.6.0)
 FFT Lib : mkl
 Fundamental constants values: CODATA 2014
 
 Run started: Sun, 11 Aug 2019 20:04:52 +0100
 
 Atomic calculation performed for O: 1s2 2s2 2p4
 
 Converged in 57 iterations to an ae energy of -2034.019 eV
 
   ============================================================                
   | Pseudopotential Report - Date of generation 11-08-2019   |                
   ------------------------------------------------------------                
   | Element: O Ionic charge:  6.00 Level of theory: PBESOL   |                
   | Atomic Solver: Koelling-Harmon                           |                
   |                                                          |                
   |               Reference Electronic Structure             |                
   |         Orbital         Occupation         Energy        |                
   |            2s              2.000           -0.875        |                
   |            2p              4.000           -0.330        |                
   |                                                          |                
   |                 Pseudopotential Definition               |                
   |        Beta     l      e      Rc     scheme   norm       |                
   |          1      0   -0.875   1.100     qc      0         |                
   |          2      0    0.250   1.100     qc      0         |                
   |          3      1   -0.330   1.100     qc      0         |                
   |          4      1    0.250   1.100     qc      0         |                
   |         loc     2    0.000   1.100     pn      0         |                
   |                                                          |                
   | Augmentation charge Rinner = 0.769                       |                
   | Partial core correction Rc = 0.769                       |                
   ------------------------------------------------------------                
   | "2|1.1|15|18|20|20:21(qc=7)"                             |                
   ------------------------------------------------------------                
   |      Author: Chris J. Pickard, Cambridge University      |                
   ============================================================                
 
 Atomic calculation performed for Ti: 1s2 2s2 2p6 3s2 3p6 3d2 4s2
 
 Converged in 72 iterations to an ae energy of -23200.392 eV
 
   ============================================================                
   | Pseudopotential Report - Date of generation 11-08-2019   |                
   ------------------------------------------------------------                
   | Element: Ti Ionic charge: 12.00 Level of theory: PBESOL  |                
   | Atomic Solver: Koelling-Harmon                           |                
   |                                                          |                
   |               Reference Electronic Structure             |                
   |         Orbital         Occupation         Energy        |                
   |            3s              2.000           -2.295        |                
   |            3p              6.000           -1.425        |                
   |            4s              2.000           -0.165        |                
   |            3d              2.000           -0.157        |                
   |                                                          |                
   |                 Pseudopotential Definition               |                
   |        Beta     l      e      Rc     scheme   norm       |                
   |          1      0   -2.295   1.793     qc      0         |                
   |          2      0   -0.165   1.793     qc      0         |                
   |          3      0    0.250   1.793     qc      0         |                
   |          4      1   -1.425   1.793     qc      0         |                
   |          5      1    0.250   1.793     qc      0         |                
   |          6      2   -0.157   1.793     qc      0         |                
   |          7      2    0.250   1.793     qc      0         |                
   |         loc     3    0.000   1.793     pn      0         |                
   |                                                          |                
   | Augmentation charge Rinner = 1.263                       |                
   | Partial core correction Rc = 1.263                       |                
   ------------------------------------------------------------                
   | "3|1.8|9|10|11|30U:40:31:32(qc=5.5)"                     |                
   ------------------------------------------------------------                
   |      Author: Chris J. Pickard, Cambridge University      |                
   ============================================================                
 
 Atomic calculation performed for Nb: 1s2 2s2 2p6 3s2 3p6 3d10 4s2 4p6 4d4 5s1
 
 Converged in 40 iterations to an ae energy of -103879.313 eV
 
   ============================================================                
   | Pseudopotential Report - Date of generation 11-08-2019   |                
   ------------------------------------------------------------                
   | Element: Nb Ionic charge: 13.00 Level of theory: PBESOL  |                
   | Atomic Solver: Koelling-Harmon                           |                
   |                                                          |                
   |               Reference Electronic Structure             |                
   |         Orbital         Occupation         Energy        |                
   |            4s              2.000           -2.144        |                
   |            4p              6.000           -1.268        |                
   |            5s              1.000           -0.147        |                
   |            4d              4.000           -0.112        |                
   |                                                          |                
   |                 Pseudopotential Definition               |                
   |        Beta     l      e      Rc     scheme   norm       |                
   |          1      0   -2.144   1.496     qc      0         |                
   |          2      0   -0.147   1.496     qc      0         |                
   |          3      0    0.250   1.496     qc      0         |                
   |          4      1   -1.268   1.496     qc      0         |                
   |          5      1    0.250   1.496     qc      0         |                
   |          6      2   -0.112   1.496     qc      0         |                
   |          7      2    0.250   1.496     qc      0         |                
   |         loc     3    0.000   1.496     pn      0         |                
   |                                                          |                
   | Augmentation charge Rinner = 1.046                       |                
   | Partial core correction Rc = 1.046                       |                
   ------------------------------------------------------------                
   | "3|1.5|10|12|13|40U:50:41:42(qc=6)"                      |                
   ------------------------------------------------------------                
   |      Author: Chris J. Pickard, Cambridge University      |                
   ============================================================                
 
 Pseudo atomic calculation performed for O 2s2 2p4
 
 Converged in 14 iterations to a total energy of -431.4712 eV
 
 
 Pseudo atomic calculation performed for Ti 3s2 3p6 3d2 4s2
 
 Converged in 31 iterations to a total energy of -1585.3670 eV
 
 
 Pseudo atomic calculation performed for Nb 4s2 4p6 4d4 5s1
 
 Converged in 17 iterations to a total energy of -1692.8055 eV
 
 Calculation parallelised over 588 processes.
 Data is distributed by G-vector(28-way) and k-point(21-way)

 ************************************ Title ************************************
 

 ***************************** General Parameters ******************************
  
 output verbosity                               : normal  (1)
 write checkpoint data to                       : TiNb2O7-JVAa6LNI-0K-prim.check
 type of calculation                            : geometry optimization
 stress calculation                             : on
 density difference calculation                 : off
 electron localisation func (ELF) calculation   : off
 Hirshfeld analysis                             : off
 unlimited duration calculation
 timing information                             : on
 memory usage estimate                          : on
 write extra output files                       : on
 write final potential to formatted file        : off
 write final density to formatted file          : off
 write structure in CELL formatted file         : on
 write BibTeX reference list                    : on
 write OTFG pseudopotential files               : on
 write electrostatic potential file             : on
 write bands file                               : on
 checkpoint writing                             : off
  
 output         length unit                     : A
 output           mass unit                     : amu
 output           time unit                     : ps
 output         charge unit                     : e
 output           spin unit                     : hbar/2
 output         energy unit                     : eV
 output          force unit                     : eV/A
 output       velocity unit                     : A/ps
 output       pressure unit                     : GPa
 output     inv_length unit                     : 1/A
 output      frequency unit                     : cm-1
 output force constant unit                     : eV/A**2
 output         volume unit                     : A**3
 output   IR intensity unit                     : (D/A)**2/amu
 output         dipole unit                     : D
 output         efield unit                     : eV/A/e
 output        entropy unit                     : J/mol/K
  
 wavefunctions paging                           : none
 random number generator seed                   : randomised (200452209)
 data distribution                              : optimal for this architecture
 optimization strategy                          : maximize speed(+++)

 *********************** Exchange-Correlation Parameters ***********************
  
 using functional                               : PBE for solids (2008)
 relativistic treatment                         : Koelling-Harmon
 DFT+D: Semi-empirical dispersion correction    : off

 ************************* Pseudopotential Parameters **************************
  
 pseudopotential representation                 : reciprocal space
 <beta|phi> representation                      : reciprocal space
 spin-orbit coupling                            : off

 **************************** Basis Set Parameters *****************************
  
 plane wave basis set cut-off                   :   800.0000   eV
 size of standard grid                          :     1.7500
 size of   fine   gmax                          :    25.3584   1/A
 finite basis set correction                    : none

 **************************** Electronic Parameters ****************************
  
 number of  electrons                           :  240.0    
 net charge of system                           :  0.000    
 treating system as non-spin-polarized
 number of bands                                :        120

 ********************* Electronic Minimization Parameters **********************
  
 Method: Treating system as non-metallic,
         and number of  SD  steps               :          1
         and number of  CG  steps               :          4
  
 total energy / atom convergence tol.           : 0.1000E-04   eV
 max force / atom convergence tol.              : ignored
 convergence tolerance window                   :          3   cycles
 max. number of SCF cycles                      :         60
 periodic dipole correction                     : NONE

 *********************** Population Analysis Parameters ************************
  
 Population analysis with cutoff                :  3.000       A
 Population analysis output                     : summary and pdos components

 ********************** Geometry Optimization Parameters ***********************
  
 optimization method                            : LBFGS
 max. no. of LBFGS updates                      : unbounded
 variable cell method                           : fixed basis quality
 max. number of steps                           :         20
 estimated bulk modulus                         :  500.0       GPa
 estimated <frequency>                          :  1668.       cm-1
 geom line minimiser                            : on
 with line minimiser tolerance                  :     0.4000
 total energy convergence tolerance             : 0.2000E-04   eV/atom
        max ionic |force| tolerance             : 0.1000E-01   eV/A
 max ionic |displacement| tolerance             : 0.1000E-02   A
   max |stress component| tolerance             : 0.1000       GPa
 convergence tolerance window                   :          2   steps
 backup results every                           :          5   steps
 write geom trajectory file                     : on

 *******************************************************************************
  
 
                           -------------------------------
                                      Unit Cell
                           -------------------------------
        Real Lattice(A)                      Reciprocal Lattice(1/A)
    10.3608300    -0.0000000     0.0000000        0.606436483  -1.567949984   0.179493251
     9.6632412     3.7374547     0.0000000        0.000000000   1.681140197   0.179493251
    -5.8751367    -1.0965830    10.2706360        0.000000000   0.000000000   0.611762047
 
                       Lattice parameters(A)       Cell Angles
                    a =     10.360830          alpha =  119.631200
                    b =     10.360830          beta  =  119.631200
                    c =     11.883000          gamma =   21.144990
 
                       Current cell volume =           397.711200       A**3
                                   density =             2.607487   AMU/A**3
                                           =             4.329834     g/cm^3
 
                           -------------------------------
                                     Cell Contents
                           -------------------------------
                         Total number of ions in cell =   30
                      Total number of species in cell =    3
                        Max number of any one species =   21
 
            xxxxxxxxxxxxxxxxxxxxxxxxxxxxxxxxxxxxxxxxxxxxxxxxxxxxxxxxxxxx
            x  Element    Atom        Fractional coordinates of atoms  x
            x            Number           u          v          w      x
            x----------------------------------------------------------x
            x  O            1         0.501018   0.501018   0.994933   x 
            x  O            2         0.900390   0.900390   0.988959   x 
            x  O            3         0.100415   0.100415   0.013803   x 
            x  O            4         0.710201   0.710201   0.003715   x 
            x  O            5         0.290741   0.290741   0.996573   x 
            x  O            6         0.951674   0.951674   0.806537   x 
            x  O            7         0.050784   0.050784   0.202580   x 
            x  O            8         0.752273   0.752273   0.806361   x 
            x  O            9         0.246932   0.246932   0.192286   x 
            x  O           10         0.875585   0.875585   0.188817   x 
            x  O           11         0.123658   0.123658   0.805090   x 
            x  O           12         0.974289   0.974289   0.581101   x 
            x  O           13         0.026558   0.026558   0.418976   x 
            x  O           14         0.627596   0.627596   0.421344   x 
            x  O           15         0.373502   0.373502   0.581178   x 
            x  O           16         0.792092   0.792092   0.614869   x 
            x  O           17         0.207664   0.207664   0.386381   x 
            x  O           18         0.826064   0.826064   0.400466   x 
            x  O           19         0.172559   0.172559   0.597100   x 
            x  O           20         0.596342   0.596342   0.622700   x 
            x  O           21         0.402784   0.402784   0.378488   x 
            x  Ti           1         0.076621   0.076621   0.631316   x 
            x  Ti           2         0.109196   0.109196   0.372782   x 
            x  Ti           3         0.814359   0.814359   0.995576   x 
            x  Nb           1         0.923462   0.923462   0.361301   x 
            x  Nb           2         0.706175   0.706175   0.632701   x 
            x  Nb           3         0.288779   0.288779   0.362928   x 
            x  Nb           4         0.895514   0.895514   0.637170   x 
            x  Nb           5         0.001312   0.001312   0.015956   x 
            x  Nb           6         0.181464   0.181464   0.988016   x 
            xxxxxxxxxxxxxxxxxxxxxxxxxxxxxxxxxxxxxxxxxxxxxxxxxxxxxxxxxxxx
 
 
                         No user defined ionic velocities
 
                           -------------------------------
                                   Details of Species
                           -------------------------------
 
                               Mass of species in AMU
                                    O   15.9994000
                                    Ti   47.8670000
                                    Nb   92.9063800
 
                          Electric Quadrupole Moment (Barn)
                                    O   -0.0255800 Isotope 17
                                    Ti    0.3020000 Isotope 47
                                    Nb   -0.3200000 Isotope 93
 
                          Files used for pseudopotentials:
                                    O 2|1.1|15|18|20|20:21(qc=7)
                                    Ti 3|1.8|9|10|11|30U:40:31:32(qc=5.5)
                                    Nb 3|1.5|10|12|13|40U:50:41:42(qc=6)
 
                           -------------------------------
                              k-Points For BZ Sampling
                           -------------------------------
                       MP grid size for SCF calculation is  6  6  2
                            with an offset of   0.000  0.000  0.000
                       Number of kpoints used =            21
 
                           -------------------------------
                               Symmetry and Constraints
                           -------------------------------
 
                      Maximum deviation from symmetry = 0.376003E-14     ANG
 
                      Number of symmetry operations   =           2
                      Number of ionic constraints     =           3
                      Point group of crystal =     3: Cs, m, m
                      Space group of crystal =     8: Cm, C -2y
 
             Set iprint > 1 for details on symmetry rotations/translations
 
                         Centre of mass is constrained
             Set iprint > 1 for details of linear ionic constraints
 
                         Number of cell constraints= 6
                         Cell constraints are:  0 0 0 0 0 0
 
                         External pressure/stress (GPa)
                          0.00000   0.00000   0.00000
                                    0.00000   0.00000
                                              0.00000
  
+---------------- MEMORY AND SCRATCH DISK ESTIMATES PER PROCESS --------------+
|                                                     Memory          Disk    |
| Baseline code, static data and system overhead      460.0 MB         0.0 MB |
| BLAS internal memory storage                          0.0 MB         0.0 MB |
| Model and support data                              144.2 MB         0.0 MB |
| Electronic energy minimisation requirements          22.5 MB         0.0 MB |
| Force calculation requirements                        4.1 MB         0.0 MB |
| Stress calculation requirements                       4.6 MB         0.0 MB |
|                                               ----------------------------- |
| Approx. total storage required per process          626.7 MB         0.0 MB |
|                                                                             |
| Requirements will fluctuate during execution and may exceed these estimates |
+-----------------------------------------------------------------------------+
Calculating total energy with cut-off of  800.000 eV.
------------------------------------------------------------------------ <-- SCF
SCF loop      Energy                           Energy gain       Timer   <-- SCF
                                               per atom          (sec)   <-- SCF
------------------------------------------------------------------------ <-- SCF
Initial  -4.16740331E+003                                         26.03  <-- SCF
      1  -1.45792773E+004                    3.47062465E+002      34.01  <-- SCF
      2  -1.60018601E+004                    4.74194268E+001      43.18  <-- SCF
      3  -2.31554199E+004                    2.38451995E+002      49.84  <-- SCF
      4  -2.41527553E+004                    3.32445129E+001      55.59  <-- SCF
      5  -2.42330677E+004                    2.67707895E+000      61.50  <-- SCF
      6  -2.42503298E+004                    5.75404672E-001      67.13  <-- SCF
      7  -2.42550821E+004                    1.58409455E-001      72.81  <-- SCF
      8  -2.42562892E+004                    4.02371859E-002      78.42  <-- SCF
      9  -2.42565183E+004                    7.63577044E-003      83.82  <-- SCF
     10  -2.42565659E+004                    1.58921936E-003      89.18  <-- SCF
     11  -2.42565830E+004                    5.68898437E-004      94.54  <-- SCF
     12  -2.42565927E+004                    3.22624617E-004      99.92  <-- SCF
     13  -2.42565985E+004                    1.92148311E-004     105.29  <-- SCF
     14  -2.42566021E+004                    1.20762889E-004     110.65  <-- SCF
     15  -2.42566043E+004                    7.29831314E-005     116.04  <-- SCF
     16  -2.42566057E+004                    4.59774873E-005     121.44  <-- SCF
     17  -2.42566065E+004                    2.78494371E-005     126.96  <-- SCF
     18  -2.42566070E+004                    1.75808119E-005     132.71  <-- SCF
     19  -2.42566073E+004                    1.06782659E-005     138.74  <-- SCF
     20  -2.42566075E+004                    6.75977199E-006     144.24  <-- SCF
     21  -2.42566077E+004                    4.11938637E-006     149.68  <-- SCF
     22  -2.42566077E+004                    2.61650477E-006     155.14  <-- SCF
------------------------------------------------------------------------ <-- SCF
 
Final energy =  -24256.60773922     eV
(energy not corrected for finite basis set)
 
 
+---------------- MEMORY AND SCRATCH DISK ESTIMATES PER PROCESS --------------+
|                                                     Memory          Disk    |
| Model and support data                              154.6 MB         0.0 MB |
| Electronic energy minimisation requirements          22.5 MB         0.0 MB |
| Geometry minimisation requirements                   24.4 MB         0.0 MB |
|                                               ----------------------------- |
| Approx. total storage required per process          201.5 MB         0.0 MB |
|                                                                             |
| Requirements will fluctuate during execution and may exceed these estimates |
+-----------------------------------------------------------------------------+
 
 
 ******************************** Symmetrised Forces ********************************
 *                                                                                  *
 *                           Cartesian components (eV/A)                            *
 * -------------------------------------------------------------------------------- *
 *                         x                    y                    z              *
 *                                                                                  *
 * O               1     -0.05576             -0.01041              0.10614         *
 * O               2      0.02396              0.00447             -0.00019         *
 * O               3     -0.00761             -0.00142             -0.00696         *
 * O               4     -0.05562             -0.01038             -0.03982         *
 * O               5      0.01291              0.00241             -0.00046         *
 * O               6      0.05406              0.01009              0.44295         *
 * O               7     -0.05029             -0.00939             -0.07754         *
 * O               8     -0.04155             -0.00775              0.35290         *
 * O               9      0.05651              0.01055             -0.37933         *
 * O              10      0.01562              0.00292             -0.38108         *
 * O              11     -0.02474             -0.00462             -0.02947         *
 * O              12     -0.00826             -0.00154              0.06357         *
 * O              13      0.05291              0.00988             -0.03644         *
 * O              14     -0.01666             -0.00311             -0.12660         *
 * O              15      0.02289              0.00427              0.14216         *
 * O              16      0.03875              0.00723              0.02650         *
 * O              17     -0.03723             -0.00695             -0.02220         *
 * O              18     -0.05871             -0.01096             -0.08951         *
 * O              19      0.05515              0.01029              0.08486         *
 * O              20     -0.03500             -0.00653              0.03282         *
 * O              21      0.08392              0.01566             -0.06207         *
 * Ti              1      0.17490              0.03264             -0.33355         *
 * Ti              2      0.10939              0.02042              0.48503         *
 * Ti              3     -0.11309             -0.02111              0.01129         *
 * Nb              1     -0.26250             -0.04900              0.50717         *
 * Nb              2     -0.07431             -0.01387             -0.58605         *
 * Nb              3      0.05313              0.00992              0.62152         *
 * Nb              4     -0.12233             -0.02283             -0.68491         *
 * Nb              5      0.05660              0.01056             -0.29041         *
 * Nb              6      0.15296              0.02855              0.26969         *
 *                                                                                  *
 ************************************************************************************
 LBFGS: finished iteration     0 with enthalpy= -2.42566077E+004 eV
  
 +-----------+-----------------+-----------------+------------+-----+ <-- LBFGS
 | Parameter |      value      |    tolerance    |    units   | OK? | <-- LBFGS
 +-----------+-----------------+-----------------+------------+-----+ <-- LBFGS
 |  dE/ion   |   0.000000E+000 |   2.000000E-005 |         eV | No  | <-- LBFGS
 |  |F|max   |   6.961243E-001 |   1.000000E-002 |       eV/A | No  | <-- LBFGS
 |  |dR|max  |   0.000000E+000 |   1.000000E-003 |          A | No  | <-- LBFGS
 +-----------+-----------------+-----------------+------------+-----+ <-- LBFGS
  

================================================================================
 Starting LBFGS iteration          1 ...
================================================================================
  
 +------------+-------------+-------------+-----------------+ <-- min LBFGS
 |    Step    |   lambda    |   F.delta'  |    enthalpy     | <-- min LBFGS
 +------------+-------------+-------------+-----------------+ <-- min LBFGS
 |  previous  |    0.000000 |    0.602210 |   -24256.607739 | <-- min LBFGS
 +------------+-------------+-------------+-----------------+ <-- min LBFGS
  

--------------------------------------------------------------------------------
 LBFGS: starting iteration         1 with trial guess (lambda=  1.000000)
--------------------------------------------------------------------------------
 
                           -------------------------------
                                     Cell Contents
                           -------------------------------
 
            xxxxxxxxxxxxxxxxxxxxxxxxxxxxxxxxxxxxxxxxxxxxxxxxxxxxxxxxxxxxxxxxx
            x  Element         Atom        Fractional coordinates of atoms  x
            x                 Number           u          v          w      x
            x---------------------------------------------------------------x
            x  O                 1         0.501019   0.501019   0.994962   x
            x  O                 2         0.900393   0.900393   0.988959   x
            x  O                 3         0.100413   0.100413   0.013801   x
            x  O                 4         0.710190   0.710190   0.003704   x
            x  O                 5         0.290743   0.290743   0.996573   x
            x  O                 6         0.951717   0.951717   0.806659   x
            x  O                 7         0.050771   0.050771   0.202559   x
            x  O                 8         0.752296   0.752296   0.806458   x
            x  O                 9         0.246909   0.246909   0.192182   x
            x  O                10         0.875556   0.875556   0.188712   x
            x  O                11         0.123652   0.123652   0.805082   x
            x  O                12         0.974293   0.974293   0.581119   x
            x  O                13         0.026563   0.026563   0.418966   x
            x  O                14         0.627583   0.627583   0.421309   x
            x  O                15         0.373517   0.373517   0.581217   x
            x  O                16         0.792100   0.792100   0.614876   x
            x  O                17         0.207657   0.207657   0.386375   x
            x  O                18         0.826048   0.826048   0.400441   x
            x  O                19         0.172574   0.172574   0.597123   x
            x  O                20         0.596340   0.596340   0.622709   x
            x  O                21         0.402791   0.402791   0.378471   x
            x  Ti                1         0.076619   0.076619   0.631224   x
            x  Ti                2         0.109251   0.109251   0.372916   x
            x  Ti                3         0.814344   0.814344   0.995579   x
            x  Nb                1         0.923466   0.923466   0.361441   x
            x  Nb                2         0.706117   0.706117   0.632540   x
            x  Nb                3         0.288837   0.288837   0.363099   x
            x  Nb                4         0.895441   0.895441   0.636981   x
            x  Nb                5         0.001297   0.001297   0.015876   x
            x  Nb                6         0.181507   0.181507   0.988090   x
            xxxxxxxxxxxxxxxxxxxxxxxxxxxxxxxxxxxxxxxxxxxxxxxxxxxxxxxxxxxxxxxxx
 
 
------------------------------------------------------------------------ <-- SCF
SCF loop      Energy                           Energy gain       Timer   <-- SCF
                                               per atom          (sec)   <-- SCF
------------------------------------------------------------------------ <-- SCF
Initial  -2.42565754E+004                                        157.87  <-- SCF
      1  -2.42566149E+004                    1.31632983E-003     163.23  <-- SCF
      2  -2.42566150E+004                    5.07449509E-006     168.61  <-- SCF
      3  -2.42566151E+004                    1.49720437E-006     174.02  <-- SCF
------------------------------------------------------------------------ <-- SCF
 
Final energy =  -24256.61505234     eV
(energy not corrected for finite basis set)
 
 
 ******************************** Symmetrised Forces ********************************
 *                                                                                  *
 *                           Cartesian components (eV/A)                            *
 * -------------------------------------------------------------------------------- *
 *                         x                    y                    z              *
 *                                                                                  *
 * O               1     -0.05273             -0.00984              0.09942         *
 * O               2      0.01883              0.00351             -0.00145         *
 * O               3      0.00428              0.00080             -0.00757         *
 * O               4     -0.04919             -0.00918             -0.03484         *
 * O               5      0.00477              0.00089              0.00111         *
 * O               6      0.04233              0.00790              0.29067         *
 * O               7     -0.04068             -0.00759             -0.01863         *
 * O               8     -0.03831             -0.00715              0.23981         *
 * O               9      0.04975              0.00929             -0.25010         *
 * O              10      0.00399              0.00075             -0.26719         *
 * O              11     -0.01841             -0.00344             -0.05528         *
 * O              12     -0.01584             -0.00296              0.04304         *
 * O              13      0.03990              0.00745             -0.02442         *
 * O              14     -0.01068             -0.00199             -0.10139         *
 * O              15      0.01736              0.00324              0.11135         *
 * O              16      0.03735              0.00697              0.01084         *
 * O              17     -0.01962             -0.00366             -0.00847         *
 * O              18     -0.05767             -0.01076             -0.06719         *
 * O              19      0.05219              0.00974              0.06498         *
 * O              20     -0.02505             -0.00468              0.01964         *
 * O              21      0.07100              0.01325             -0.04942         *
 * Ti              1      0.17660              0.03296             -0.26835         *
 * Ti              2      0.08764              0.01636              0.39202         *
 * Ti              3     -0.10534             -0.01966              0.01167         *
 * Nb              1     -0.21521             -0.04017              0.36630         *
 * Nb              2     -0.08429             -0.01573             -0.44475         *
 * Nb              3      0.04325              0.00807              0.45265         *
 * Nb              4     -0.10133             -0.01891             -0.47504         *
 * Nb              5      0.04657              0.00869             -0.27575         *
 * Nb              6      0.13853              0.02586              0.24635         *
 *                                                                                  *
 ************************************************************************************
  
 +------------+-------------+-------------+-----------------+ <-- min LBFGS
 |    Step    |   lambda    |   F.delta'  |    enthalpy     | <-- min LBFGS
 +------------+-------------+-------------+-----------------+ <-- min LBFGS
 |  previous  |    0.000000 |    0.602210 |   -24256.607739 | <-- min LBFGS
 | trial step |    1.000000 |    0.449796 |   -24256.615052 | <-- min LBFGS
 +------------+-------------+-------------+-----------------+ <-- min LBFGS
  

--------------------------------------------------------------------------------
 LBFGS: improving iteration         1 with line minimization (lambda=  3.951160)
--------------------------------------------------------------------------------
 
                           -------------------------------
                                     Cell Contents
                           -------------------------------
 
            xxxxxxxxxxxxxxxxxxxxxxxxxxxxxxxxxxxxxxxxxxxxxxxxxxxxxxxxxxxxxxxxx
            x  Element         Atom        Fractional coordinates of atoms  x
            x                 Number           u          v          w      x
            x---------------------------------------------------------------x
            x  O                 1         0.501021   0.501021   0.995048   x
            x  O                 2         0.900403   0.900403   0.988959   x
            x  O                 3         0.100409   0.100409   0.013795   x
            x  O                 4         0.710157   0.710157   0.003672   x
            x  O                 5         0.290748   0.290748   0.996572   x
            x  O                 6         0.951846   0.951846   0.807019   x
            x  O                 7         0.050731   0.050731   0.202496   x
            x  O                 8         0.752362   0.752362   0.806745   x
            x  O                 9         0.246842   0.246842   0.191873   x
            x  O                10         0.875472   0.875472   0.188402   x
            x  O                11         0.123635   0.123635   0.805058   x
            x  O                12         0.974305   0.974305   0.581170   x
            x  O                13         0.026576   0.026576   0.418936   x
            x  O                14         0.627546   0.627546   0.421206   x
            x  O                15         0.373560   0.373560   0.581333   x
            x  O                16         0.792122   0.792122   0.614898   x
            x  O                17         0.207636   0.207636   0.386357   x
            x  O                18         0.826003   0.826003   0.400369   x
            x  O                19         0.172617   0.172617   0.597192   x
            x  O                20         0.596333   0.596333   0.622736   x
            x  O                21         0.402811   0.402811   0.378420   x
            x  Ti                1         0.076612   0.076612   0.630953   x
            x  Ti                2         0.109412   0.109412   0.373310   x
            x  Ti                3         0.814299   0.814299   0.995588   x
            x  Nb                1         0.923477   0.923477   0.361853   x
            x  Nb                2         0.705946   0.705946   0.632063   x
            x  Nb                3         0.289007   0.289007   0.363604   x
            x  Nb                4         0.895227   0.895227   0.636425   x
            x  Nb                5         0.001251   0.001251   0.015640   x
            x  Nb                6         0.181635   0.181635   0.988309   x
            xxxxxxxxxxxxxxxxxxxxxxxxxxxxxxxxxxxxxxxxxxxxxxxxxxxxxxxxxxxxxxxxx
 
 
------------------------------------------------------------------------ <-- SCF
SCF loop      Energy                           Energy gain       Timer   <-- SCF
                                               per atom          (sec)   <-- SCF
------------------------------------------------------------------------ <-- SCF
Initial  -2.42562808E+004                                        176.73  <-- SCF
      1  -2.42566247E+004                    1.14656566E-002     182.26  <-- SCF
      2  -2.42566258E+004                    3.67589145E-005     187.95  <-- SCF
      3  -2.42566260E+004                    4.31453412E-006     193.43  <-- SCF
      4  -2.42566260E+004                    2.20430736E-006     198.96  <-- SCF
------------------------------------------------------------------------ <-- SCF
 
Final energy =  -24256.62602177     eV
(energy not corrected for finite basis set)
 
 
 ******************************** Symmetrised Forces ********************************
 *                                                                                  *
 *                           Cartesian components (eV/A)                            *
 * -------------------------------------------------------------------------------- *
 *                         x                    y                    z              *
 *                                                                                  *
 * O               1     -0.04466             -0.00834              0.09868         *
 * O               2      0.00549              0.00103              0.00211         *
 * O               3      0.03911              0.00730             -0.01035         *
 * O               4     -0.05191             -0.00969             -0.03547         *
 * O               5     -0.00231             -0.00043             -0.00001         *
 * O               6      0.01764              0.00329             -0.13688         *
 * O               7     -0.01728             -0.00323              0.16518         *
 * O               8     -0.02200             -0.00411             -0.07862         *
 * O               9      0.02263              0.00422              0.11968         *
 * O              10     -0.01059             -0.00198              0.06005         *
 * O              11     -0.01494             -0.00279             -0.15072         *
 * O              12     -0.04185             -0.00781              0.00114         *
 * O              13     -0.00847             -0.00158             -0.01501         *
 * O              14      0.00244              0.00046             -0.05536         *
 * O              15      0.01148              0.00214              0.04665         *
 * O              16      0.03694              0.00689             -0.01646         *
 * O              17      0.04246              0.00793              0.01016         *
 * O              18     -0.05795             -0.01082             -0.01652         *
 * O              19      0.05417              0.01011              0.03165         *
 * O              20     -0.00956             -0.00178             -0.00912         *
 * O              21      0.04546              0.00849             -0.01893         *
 * Ti              1      0.14952              0.02791             -0.09536         *
 * Ti              2      0.02177              0.00406              0.10643         *
 * Ti              3     -0.04197             -0.00783              0.00664         *
 * Nb              1     -0.10081             -0.01882              0.05431         *
 * Nb              2     -0.10108             -0.01887             -0.11644         *
 * Nb              3      0.01946              0.00363              0.08101         *
 * Nb              4     -0.04546             -0.00848              0.02129         *
 * Nb              5      0.02305              0.00430             -0.23357         *
 * Nb              6      0.07920              0.01478              0.18385         *
 *                                                                                  *
 ************************************************************************************
  
 +------------+-------------+-------------+-----------------+ <-- min LBFGS
 |    Step    |   lambda    |   F.delta'  |    enthalpy     | <-- min LBFGS
 +------------+-------------+-------------+-----------------+ <-- min LBFGS
 |  previous  |    0.000000 |    0.602210 |   -24256.607739 | <-- min LBFGS
 | trial step |    1.000000 |    0.449796 |   -24256.615052 | <-- min LBFGS
 |  line step |    3.951160 |    0.064747 |   -24256.626022 | <-- min LBFGS
 +------------+-------------+-------------+-----------------+ <-- min LBFGS
  
 LBFGS: finished iteration     1 with enthalpy= -2.42566260E+004 eV
  
 +-----------+-----------------+-----------------+------------+-----+ <-- LBFGS
 | Parameter |      value      |    tolerance    |    units   | OK? | <-- LBFGS
 +-----------+-----------------+-----------------+------------+-----+ <-- LBFGS
 |  dE/ion   |   6.094183E-004 |   2.000000E-005 |         eV | No  | <-- LBFGS
 |  |F|max   |   2.347416E-001 |   1.000000E-002 |       eV/A | No  | <-- LBFGS
 |  |dR|max  |   7.778651E-003 |   1.000000E-003 |          A | No  | <-- LBFGS
 +-----------+-----------------+-----------------+------------+-----+ <-- LBFGS
  

================================================================================
 Starting LBFGS iteration          2 ...
================================================================================
  
 +------------+-------------+-------------+-----------------+ <-- min LBFGS
 |    Step    |   lambda    |   F.delta'  |    enthalpy     | <-- min LBFGS
 +------------+-------------+-------------+-----------------+ <-- min LBFGS
 |  previous  |    0.000000 |    0.157973 |   -24256.626022 | <-- min LBFGS
 +------------+-------------+-------------+-----------------+ <-- min LBFGS
  

--------------------------------------------------------------------------------
 LBFGS: starting iteration         2 with trial guess (lambda=  1.000000)
--------------------------------------------------------------------------------
 
                           -------------------------------
                                     Cell Contents
                           -------------------------------
 
            xxxxxxxxxxxxxxxxxxxxxxxxxxxxxxxxxxxxxxxxxxxxxxxxxxxxxxxxxxxxxxxxx
            x  Element         Atom        Fractional coordinates of atoms  x
            x                 Number           u          v          w      x
            x---------------------------------------------------------------x
            x  O                 1         0.501023   0.501023   0.995093   x
            x  O                 2         0.900406   0.900406   0.988959   x
            x  O                 3         0.100413   0.100413   0.013791   x
            x  O                 4         0.710140   0.710140   0.003655   x
            x  O                 5         0.290749   0.290749   0.996572   x
            x  O                 6         0.951857   0.951857   0.807035   x
            x  O                 7         0.050737   0.050737   0.202536   x
            x  O                 8         0.752363   0.752363   0.806768   x
            x  O                 9         0.246846   0.246846   0.191860   x
            x  O                10         0.875462   0.875462   0.188370   x
            x  O                11         0.123616   0.123616   0.805008   x
            x  O                12         0.974300   0.974300   0.581179   x
            x  O                13         0.026575   0.026575   0.418927   x
            x  O                14         0.627536   0.627536   0.421172   x
            x  O                15         0.373573   0.373573   0.581366   x
            x  O                16         0.792130   0.792130   0.614896   x
            x  O                17         0.207640   0.207640   0.386357   x
            x  O                18         0.825985   0.825985   0.400352   x
            x  O                19         0.172635   0.172635   0.597213   x
            x  O                20         0.596329   0.596329   0.622737   x
            x  O                21         0.402820   0.402820   0.378406   x
            x  Ti                1         0.076626   0.076626   0.630879   x
            x  Ti                2         0.109451   0.109451   0.373407   x
            x  Ti                3         0.814286   0.814286   0.995592   x
            x  Nb                1         0.923468   0.923468   0.361937   x
            x  Nb                2         0.705892   0.705892   0.631950   x
            x  Nb                3         0.289045   0.289045   0.363712   x
            x  Nb                4         0.895187   0.895187   0.636341   x
            x  Nb                5         0.001226   0.001226   0.015529   x
            x  Nb                6         0.181686   0.181686   0.988402   x
            xxxxxxxxxxxxxxxxxxxxxxxxxxxxxxxxxxxxxxxxxxxxxxxxxxxxxxxxxxxxxxxxx
 
 
------------------------------------------------------------------------ <-- SCF
SCF loop      Energy                           Energy gain       Timer   <-- SCF
                                               per atom          (sec)   <-- SCF
------------------------------------------------------------------------ <-- SCF
Initial  -2.42566081E+004                                        201.69  <-- SCF
      1  -2.42566273E+004                    6.39679752E-004     207.25  <-- SCF
      2  -2.42566274E+004                    3.75700771E-006     212.80  <-- SCF
      3  -2.42566274E+004                    1.51410303E-006     218.45  <-- SCF
------------------------------------------------------------------------ <-- SCF
 
Final energy =  -24256.62744484     eV
(energy not corrected for finite basis set)
 
 
 ******************************** Symmetrised Forces ********************************
 *                                                                                  *
 *                           Cartesian components (eV/A)                            *
 * -------------------------------------------------------------------------------- *
 *                         x                    y                    z              *
 *                                                                                  *
 * O               1     -0.04351             -0.00812              0.08755         *
 * O               2      0.00172              0.00032             -0.00380         *
 * O               3      0.04455              0.00832             -0.00937         *
 * O               4     -0.04235             -0.00791             -0.02791         *
 * O               5     -0.01033             -0.00193              0.00239         *
 * O               6      0.01186              0.00221             -0.16487         *
 * O               7     -0.01144             -0.00213              0.16954         *
 * O               8     -0.02365             -0.00441             -0.11630         *
 * O               9      0.02606              0.00486              0.15281         *
 * O              10     -0.02330             -0.00435              0.09303         *
 * O              11     -0.00462             -0.00086             -0.14153         *
 * O              12     -0.04273             -0.00797             -0.00833         *
 * O              13     -0.01462             -0.00273             -0.00698         *
 * O              14      0.00686              0.00128             -0.03704         *
 * O              15      0.00632              0.00118              0.03365         *
 * O              16      0.02865              0.00535             -0.02373         *
 * O              17      0.04975              0.00929              0.02071         *
 * O              18     -0.05662             -0.01057             -0.01053         *
 * O              19      0.05004              0.00934              0.02259         *
 * O              20      0.00382              0.00071             -0.01600         *
 * O              21      0.03361              0.00627             -0.01645         *
 * Ti              1      0.15041              0.02807             -0.06054         *
 * Ti              2      0.01268              0.00237              0.06693         *
 * Ti              3     -0.04790             -0.00894              0.00484         *
 * Nb              1     -0.07314             -0.01365             -0.00814         *
 * Nb              2     -0.09485             -0.01770             -0.04643         *
 * Nb              3      0.01180              0.00220              0.01183         *
 * Nb              4     -0.03813             -0.00712              0.08284         *
 * Nb              5      0.01347              0.00251             -0.20108         *
 * Nb              6      0.07558              0.01411              0.15035         *
 *                                                                                  *
 ************************************************************************************
  
 +------------+-------------+-------------+-----------------+ <-- min LBFGS
 |    Step    |   lambda    |   F.delta'  |    enthalpy     | <-- min LBFGS
 +------------+-------------+-------------+-----------------+ <-- min LBFGS
 |  previous  |    0.000000 |    0.157973 |   -24256.626022 | <-- min LBFGS
 | trial step |    1.000000 |    0.103983 |   -24256.627445 | <-- min LBFGS
 +------------+-------------+-------------+-----------------+ <-- min LBFGS
  

--------------------------------------------------------------------------------
 LBFGS: improving iteration         2 with line minimization (lambda=  2.925983)
--------------------------------------------------------------------------------
 
                           -------------------------------
                                     Cell Contents
                           -------------------------------
 
            xxxxxxxxxxxxxxxxxxxxxxxxxxxxxxxxxxxxxxxxxxxxxxxxxxxxxxxxxxxxxxxxx
            x  Element         Atom        Fractional coordinates of atoms  x
            x                 Number           u          v          w      x
            x---------------------------------------------------------------x
            x  O                 1         0.501027   0.501027   0.995179   x
            x  O                 2         0.900411   0.900411   0.988961   x
            x  O                 3         0.100422   0.100422   0.013783   x
            x  O                 4         0.710108   0.710108   0.003624   x
            x  O                 5         0.290750   0.290750   0.996572   x
            x  O                 6         0.951879   0.951879   0.807067   x
            x  O                 7         0.050748   0.050748   0.202615   x
            x  O                 8         0.752363   0.752363   0.806811   x
            x  O                 9         0.246853   0.246853   0.191834   x
            x  O                10         0.875443   0.875443   0.188309   x
            x  O                11         0.123580   0.123580   0.804910   x
            x  O                12         0.974291   0.974291   0.581196   x
            x  O                13         0.026574   0.026574   0.418909   x
            x  O                14         0.627515   0.627515   0.421107   x
            x  O                15         0.373599   0.373599   0.581430   x
            x  O                16         0.792146   0.792146   0.614893   x
            x  O                17         0.207649   0.207649   0.386357   x
            x  O                18         0.825950   0.825950   0.400319   x
            x  O                19         0.172671   0.172671   0.597254   x
            x  O                20         0.596323   0.596323   0.622740   x
            x  O                21         0.402837   0.402837   0.378379   x
            x  Ti                1         0.076653   0.076653   0.630738   x
            x  Ti                2         0.109527   0.109527   0.373594   x
            x  Ti                3         0.814261   0.814261   0.995599   x
            x  Nb                1         0.923451   0.923451   0.362099   x
            x  Nb                2         0.705787   0.705787   0.631731   x
            x  Nb                3         0.289119   0.289119   0.363919   x
            x  Nb                4         0.895109   0.895109   0.636178   x
            x  Nb                5         0.001178   0.001178   0.015316   x
            x  Nb                6         0.181782   0.181782   0.988580   x
            xxxxxxxxxxxxxxxxxxxxxxxxxxxxxxxxxxxxxxxxxxxxxxxxxxxxxxxxxxxxxxxxx
 
 
------------------------------------------------------------------------ <-- SCF
SCF loop      Energy                           Energy gain       Timer   <-- SCF
                                               per atom          (sec)   <-- SCF
------------------------------------------------------------------------ <-- SCF
Initial  -2.42565574E+004                                        221.24  <-- SCF
      1  -2.42566283E+004                    2.36328656E-003     226.98  <-- SCF
      2  -2.42566287E+004                    1.08076996E-005     232.51  <-- SCF
      3  -2.42566287E+004                    2.01759889E-006     237.98  <-- SCF
      4  -2.42566288E+004                    1.02979416E-006     243.43  <-- SCF
------------------------------------------------------------------------ <-- SCF
 
Final energy =  -24256.62876211     eV
(energy not corrected for finite basis set)
 
 
 ******************************** Symmetrised Forces ********************************
 *                                                                                  *
 *                           Cartesian components (eV/A)                            *
 * -------------------------------------------------------------------------------- *
 *                         x                    y                    z              *
 *                                                                                  *
 * O               1     -0.03612             -0.00674              0.08098         *
 * O               2     -0.00459             -0.00086             -0.00068         *
 * O               3      0.05418              0.01011             -0.01063         *
 * O               4     -0.03900             -0.00728             -0.02644         *
 * O               5     -0.01130             -0.00211              0.00206         *
 * O               6      0.00731              0.00137             -0.24170         *
 * O               7      0.00068              0.00013              0.18460         *
 * O               8     -0.01526             -0.00285             -0.20598         *
 * O               9      0.01658              0.00309              0.24005         *
 * O              10     -0.02608             -0.00487              0.18018         *
 * O              11     -0.00198             -0.00037             -0.12897         *
 * O              12     -0.04333             -0.00809             -0.02304         *
 * O              13     -0.04078             -0.00761             -0.00591         *
 * O              14      0.01262              0.00236             -0.01237         *
 * O              15      0.00536              0.00100              0.00736         *
 * O              16      0.01191              0.00222             -0.03052         *
 * O              17      0.07295              0.01362              0.02555         *
 * O              18     -0.05176             -0.00966              0.00960         *
 * O              19      0.04722              0.00881              0.00745         *
 * O              20      0.01443              0.00269             -0.02927         *
 * O              21      0.02032              0.00379             -0.00280         *
 * Ti              1      0.10994              0.02052             -0.00121         *
 * Ti              2     -0.01643             -0.00307             -0.04757         *
 * Ti              3     -0.01340             -0.00250             -0.00004         *
 * Nb              1     -0.01864             -0.00348             -0.08129         *
 * Nb              2     -0.08084             -0.01509              0.05030         *
 * Nb              3     -0.00238             -0.00044             -0.06907         *
 * Nb              4     -0.01679             -0.00313              0.17754         *
 * Nb              5      0.00153              0.00029             -0.13929         *
 * Nb              6      0.04369              0.00815              0.09109         *
 *                                                                                  *
 ************************************************************************************
  
 +------------+-------------+-------------+-----------------+ <-- min LBFGS
 |    Step    |   lambda    |   F.delta'  |    enthalpy     | <-- min LBFGS
 +------------+-------------+-------------+-----------------+ <-- min LBFGS
 |  previous  |    0.000000 |    0.157973 |   -24256.626022 | <-- min LBFGS
 | trial step |    1.000000 |    0.103983 |   -24256.627445 | <-- min LBFGS
 |  line step |    2.925983 |    0.008615 |   -24256.628762 | <-- min LBFGS
 +------------+-------------+-------------+-----------------+ <-- min LBFGS
  
 LBFGS: finished iteration     2 with enthalpy= -2.42566288E+004 eV
  
 +-----------+-----------------+-----------------+------------+-----+ <-- LBFGS
 | Parameter |      value      |    tolerance    |    units   | OK? | <-- LBFGS
 +-----------+-----------------+-----------------+------------+-----+ <-- LBFGS
 |  dE/ion   |   9.134446E-005 |   2.000000E-005 |         eV | No  | <-- LBFGS
 |  |F|max   |   2.418109E-001 |   1.000000E-002 |       eV/A | No  | <-- LBFGS
 |  |dR|max  |   3.639765E-003 |   1.000000E-003 |          A | No  | <-- LBFGS
 +-----------+-----------------+-----------------+------------+-----+ <-- LBFGS
  

================================================================================
 Starting LBFGS iteration          3 ...
================================================================================
  
 +------------+-------------+-------------+-----------------+ <-- min LBFGS
 |    Step    |   lambda    |   F.delta'  |    enthalpy     | <-- min LBFGS
 +------------+-------------+-------------+-----------------+ <-- min LBFGS
 |  previous  |    0.000000 |    0.183903 |   -24256.628762 | <-- min LBFGS
 +------------+-------------+-------------+-----------------+ <-- min LBFGS
  

--------------------------------------------------------------------------------
 LBFGS: starting iteration         3 with trial guess (lambda=  1.000000)
--------------------------------------------------------------------------------
 
                           -------------------------------
                                     Cell Contents
                           -------------------------------
 
            xxxxxxxxxxxxxxxxxxxxxxxxxxxxxxxxxxxxxxxxxxxxxxxxxxxxxxxxxxxxxxxxx
            x  Element         Atom        Fractional coordinates of atoms  x
            x                 Number           u          v          w      x
            x---------------------------------------------------------------x
            x  O                 1         0.501031   0.501031   0.995242   x
            x  O                 2         0.900412   0.900412   0.988961   x
            x  O                 3         0.100435   0.100435   0.013776   x
            x  O                 4         0.710085   0.710085   0.003602   x
            x  O                 5         0.290748   0.290748   0.996573   x
            x  O                 6         0.951854   0.951854   0.806966   x
            x  O                 7         0.050776   0.050776   0.202724   x
            x  O                 8         0.752335   0.752335   0.806737   x
            x  O                 9         0.246889   0.246889   0.191931   x
            x  O                10         0.875454   0.875454   0.188367   x
            x  O                11         0.123549   0.123549   0.804818   x
            x  O                12         0.974276   0.974276   0.581192   x
            x  O                13         0.026565   0.026565   0.418900   x
            x  O                14         0.627509   0.627509   0.421079   x
            x  O                15         0.373609   0.373609   0.581454   x
            x  O                16         0.792151   0.792151   0.614880   x
            x  O                17         0.207669   0.207669   0.386368   x
            x  O                18         0.825928   0.825928   0.400312   x
            x  O                19         0.172694   0.172694   0.597271   x
            x  O                20         0.596320   0.596320   0.622730   x
            x  O                21         0.402847   0.402847   0.378369   x
            x  Ti                1         0.076686   0.076686   0.630690   x
            x  Ti                2         0.109544   0.109544   0.373637   x
            x  Ti                3         0.814249   0.814249   0.995601   x
            x  Nb                1         0.923429   0.923429   0.362114   x
            x  Nb                2         0.705741   0.705741   0.631681   x
            x  Nb                3         0.289133   0.289133   0.363952   x
            x  Nb                4         0.895105   0.895105   0.636210   x
            x  Nb                5         0.001144   0.001144   0.015182   x
            x  Nb                6         0.181836   0.181836   0.988682   x
            xxxxxxxxxxxxxxxxxxxxxxxxxxxxxxxxxxxxxxxxxxxxxxxxxxxxxxxxxxxxxxxxx
 
 
------------------------------------------------------------------------ <-- SCF
SCF loop      Energy                           Energy gain       Timer   <-- SCF
                                               per atom          (sec)   <-- SCF
------------------------------------------------------------------------ <-- SCF
Initial  -2.42566122E+004                                        246.23  <-- SCF
      1  -2.42566303E+004                    6.04687949E-004     251.88  <-- SCF
      2  -2.42566304E+004                    2.45809911E-006     257.29  <-- SCF
      3  -2.42566304E+004                    6.82052550E-007     262.79  <-- SCF
------------------------------------------------------------------------ <-- SCF
 
Final energy =  -24256.63041199     eV
(energy not corrected for finite basis set)
 
 
 ******************************** Symmetrised Forces ********************************
 *                                                                                  *
 *                           Cartesian components (eV/A)                            *
 * -------------------------------------------------------------------------------- *
 *                         x                    y                    z              *
 *                                                                                  *
 * O               1     -0.03318             -0.00619              0.06731         *
 * O               2     -0.00655             -0.00122             -0.00665         *
 * O               3      0.05043              0.00941             -0.00936         *
 * O               4     -0.03131             -0.00584             -0.01839         *
 * O               5     -0.01331             -0.00248              0.00415         *
 * O               6      0.00884              0.00165             -0.16204         *
 * O               7      0.00407              0.00076              0.13457         *
 * O               8     -0.01689             -0.00315             -0.17262         *
 * O               9      0.02186              0.00408              0.18559         *
 * O              10     -0.03241             -0.00605              0.14134         *
 * O              11      0.00515              0.00096             -0.08501         *
 * O              12     -0.03521             -0.00657             -0.02056         *
 * O              13     -0.04176             -0.00779             -0.00340         *
 * O              14      0.01447              0.00270             -0.00346         *
 * O              15      0.00387              0.00072              0.00998         *
 * O              16     -0.00213             -0.00040             -0.02733         *
 * O              17      0.06685              0.01248              0.02763         *
 * O              18     -0.04663             -0.00870              0.00466         *
 * O              19      0.04047              0.00755              0.00706         *
 * O              20      0.02490              0.00465             -0.03041         *
 * O              21      0.01193              0.00223             -0.00505         *
 * Ti              1      0.08828              0.01648              0.00312         *
 * Ti              2     -0.01602             -0.00299             -0.05462         *
 * Ti              3     -0.01318             -0.00246             -0.00350         *
 * Nb              1     -0.00797             -0.00149             -0.05449         *
 * Nb              2     -0.05292             -0.00988              0.04637         *
 * Nb              3     -0.00590             -0.00110             -0.03676         *
 * Nb              4     -0.01309             -0.00244              0.10156         *
 * Nb              5     -0.00148             -0.00028             -0.08522         *
 * Nb              6      0.02884              0.00538              0.04553         *
 *                                                                                  *
 ************************************************************************************
  
 +------------+-------------+-------------+-----------------+ <-- min LBFGS
 |    Step    |   lambda    |   F.delta'  |    enthalpy     | <-- min LBFGS
 +------------+-------------+-------------+-----------------+ <-- min LBFGS
 |  previous  |    0.000000 |    0.183903 |   -24256.628762 | <-- min LBFGS
 | trial step |    1.000000 |    0.131460 |   -24256.630412 | <-- min LBFGS
 +------------+-------------+-------------+-----------------+ <-- min LBFGS
  

--------------------------------------------------------------------------------
 LBFGS: improving iteration         3 with line minimization (lambda=  3.506755)
--------------------------------------------------------------------------------
 
                           -------------------------------
                                     Cell Contents
                           -------------------------------
 
            xxxxxxxxxxxxxxxxxxxxxxxxxxxxxxxxxxxxxxxxxxxxxxxxxxxxxxxxxxxxxxxxx
            x  Element         Atom        Fractional coordinates of atoms  x
            x                 Number           u          v          w      x
            x---------------------------------------------------------------x
            x  O                 1         0.501040   0.501040   0.995399   x
            x  O                 2         0.900415   0.900415   0.988963   x
            x  O                 3         0.100467   0.100467   0.013759   x
            x  O                 4         0.710028   0.710028   0.003548   x
            x  O                 5         0.290744   0.290744   0.996574   x
            x  O                 6         0.951793   0.951793   0.806712   x
            x  O                 7         0.050846   0.050846   0.202998   x
            x  O                 8         0.752262   0.752262   0.806552   x
            x  O                 9         0.246980   0.246980   0.192175   x
            x  O                10         0.875484   0.875484   0.188514   x
            x  O                11         0.123473   0.123473   0.804587   x
            x  O                12         0.974237   0.974237   0.581183   x
            x  O                13         0.026543   0.026543   0.418879   x
            x  O                14         0.627493   0.627493   0.421008   x
            x  O                15         0.373635   0.373635   0.581515   x
            x  O                16         0.792164   0.792164   0.614845   x
            x  O                17         0.207722   0.207722   0.386393   x
            x  O                18         0.825875   0.825875   0.400296   x
            x  O                19         0.172751   0.172751   0.597313   x
            x  O                20         0.596311   0.596311   0.622704   x
            x  O                21         0.402872   0.402872   0.378344   x
            x  Ti                1         0.076770   0.076770   0.630571   x
            x  Ti                2         0.109585   0.109585   0.373745   x
            x  Ti                3         0.814222   0.814222   0.995608   x
            x  Nb                1         0.923374   0.923374   0.362154   x
            x  Nb                2         0.705624   0.705624   0.631556   x
            x  Nb                3         0.289168   0.289168   0.364035   x
            x  Nb                4         0.895096   0.895096   0.636291   x
            x  Nb                5         0.001059   0.001059   0.014843   x
            x  Nb                6         0.181972   0.181972   0.988939   x
            xxxxxxxxxxxxxxxxxxxxxxxxxxxxxxxxxxxxxxxxxxxxxxxxxxxxxxxxxxxxxxxxx
 
 
------------------------------------------------------------------------ <-- SCF
SCF loop      Energy                           Energy gain       Timer   <-- SCF
                                               per atom          (sec)   <-- SCF
------------------------------------------------------------------------ <-- SCF
Initial  -2.42565183E+004                                        265.61  <-- SCF
      1  -2.42566320E+004                    3.79090283E-003     271.18  <-- SCF
      2  -2.42566324E+004                    1.35212940E-005     276.63  <-- SCF
      3  -2.42566325E+004                    1.51768199E-006     282.29  <-- SCF
      4  -2.42566325E+004                    7.65956737E-007     288.11  <-- SCF
------------------------------------------------------------------------ <-- SCF
 
Final energy =  -24256.63249006     eV
(energy not corrected for finite basis set)
 
 
 ******************************** Symmetrised Forces ********************************
 *                                                                                  *
 *                           Cartesian components (eV/A)                            *
 * -------------------------------------------------------------------------------- *
 *                         x                    y                    z              *
 *                                                                                  *
 * O               1     -0.02721             -0.00508              0.05486         *
 * O               2     -0.01298             -0.00242             -0.00580         *
 * O               3      0.04480              0.00836             -0.00995         *
 * O               4     -0.01793             -0.00335             -0.01331         *
 * O               5     -0.01109             -0.00207              0.00546         *
 * O               6      0.01828              0.00341              0.01896         *
 * O               7      0.01080              0.00202              0.01001         *
 * O               8     -0.01614             -0.00301             -0.10511         *
 * O               9      0.02863              0.00534              0.07463         *
 * O              10     -0.03194             -0.00596              0.05759         *
 * O              11      0.01434              0.00268              0.02539         *
 * O              12     -0.01082             -0.00202             -0.01766         *
 * O              13     -0.05410             -0.01010             -0.00510         *
 * O              14      0.01564              0.00292              0.01307         *
 * O              15      0.00512              0.00096              0.00940         *
 * O              16     -0.04262             -0.00795             -0.02284         *
 * O              17      0.05824              0.01087              0.02945         *
 * O              18     -0.03856             -0.00720              0.00648         *
 * O              19      0.03131              0.00584             -0.00105         *
 * O              20      0.04064              0.00758             -0.04018         *
 * O              21      0.00516              0.00096             -0.00200         *
 * Ti              1      0.01591              0.00297              0.00206         *
 * Ti              2     -0.02956             -0.00552             -0.07629         *
 * Ti              3      0.00844              0.00158             -0.01014         *
 * Nb              1      0.03026              0.00565              0.01364         *
 * Nb              2     -0.00233             -0.00044              0.01500         *
 * Nb              3     -0.01556             -0.00290              0.05687         *
 * Nb              4     -0.00893             -0.00167             -0.06842         *
 * Nb              5     -0.01226             -0.00229              0.03750         *
 * Nb              6      0.00445              0.00083             -0.05251         *
[...]
 *  Pressure:   -0.0747                          *
 *                                               *
 *************************************************
 
 Pseudo atomic calculation performed for O 2s2 2p4
 
 Converged in 14 iterations to a total energy of -431.4712 eV
 
 
 Pseudo atomic calculation performed for Ti 3s2 3p6 3d2 4s2
 
 Converged in 31 iterations to a total energy of -1585.3670 eV
 
 
 Pseudo atomic calculation performed for Nb 4s2 4p6 4d4 5s1
 
 Converged in 17 iterations to a total energy of -1692.8055 eV
 
Charge spilling parameter for spin component 1 = 0.24%
 
            Orbital Populations       
     Ion    Atom   Orbital             Charge
  -------------------------------------------
      O     1      S                    1.849
      O     1      Px                   1.620
      O     1      Py                   1.544
      O     1      Pz                   1.608
      O     2      S                    1.850
      O     2      Px                   1.526
      O     2      Py                   1.619
      O     2      Pz                   1.599
      O     3      S                    1.853
      O     3      Px                   1.543
      O     3      Py                   1.606
      O     3      Pz                   1.612
      O     4      S                    1.837
      O     4      Px                   1.656
      O     4      Py                   1.529
      O     4      Pz                   1.661
      O     5      S                    1.848
      O     5      Px                   1.633
      O     5      Py                   1.539
      O     5      Pz                   1.650
      O     6      S                    1.859
      O     6      Px                   1.593
      O     6      Py                   1.594
      O     6      Pz                   1.526
      O     7      S                    1.847
      O     7      Px                   1.612
      O     7      Py                   1.627
      O     7      Pz                   1.512
      O     8      S                    1.849
      O     8      Px                   1.618
      O     8      Py                   1.573
      O     8      Pz                   1.531
      O     9      S                    1.850
      O     9      Px                   1.630
      O     9      Py                   1.566
      O     9      Pz                   1.531
      O    10      S                    1.854
      O    10      Px                   1.588
      O    10      Py                   1.594
      O    10      Pz                   1.535
      O    11      S                    1.844
      O    11      Px                   1.607
      O    11      Py                   1.617
      O    11      Pz                   1.519
      O    12      S                    1.841
      O    12      Px                   1.537
      O    12      Py                   1.655
      O    12      Pz                   1.643
      O    13      S                    1.844
      O    13      Px                   1.540
      O    13      Py                   1.630
      O    13      Pz                   1.637
      O    14      S                    1.845
      O    14      Px                   1.657
      O    14      Py                   1.529
      O    14      Pz                   1.630
      O    15      S                    1.835
      O    15      Px                   1.666
      O    15      Py                   1.529
      O    15      Pz                   1.654
      O    16      S                    1.842
      O    16      Px                   1.526
      O    16      Py                   1.597
      O    16      Pz                   1.665
      O    17      S                    1.846
      O    17      Px                   1.524
      O    17      Py                   1.577
      O    17      Pz                   1.645
      O    18      S                    1.830
      O    18      Px                   1.653
      O    18      Py                   1.550
      O    18      Pz                   1.693
      O    19      S                    1.829
      O    19      Px                   1.653
      O    19      Py                   1.542
      O    19      Pz                   1.683
      O    20      S                    1.840
      O    20      Px                   1.609
      O    20      Py                   1.525
      O    20      Pz                   1.682
      O    21      S                    1.829
      O    21      Px                   1.636
      O    21      Py                   1.517
      O    21      Pz                   1.707
     Ti     1      S                    1.992
     Ti     1      Px                   1.991
     Ti     1      Py                   1.991
     Ti     1      Pz                   1.988
     Ti     1      S                    0.253
     Ti     1      Dzz                  0.534
     Ti     1      Dzy                  0.399
     Ti     1      Dzx                  0.386
     Ti     1      Dxx-yy               0.485
     Ti     1      Dxy                  0.372
     Ti     1      Px                   0.087
     Ti     1      Py                   0.118
     Ti     1      Pz                   0.112
     Ti     2      S                    1.991
     Ti     2      Px                   1.990
     Ti     2      Py                   1.991
     Ti     2      Pz                   1.987
     Ti     2      S                    0.269
     Ti     2      Dzz                  0.525
     Ti     2      Dzy                  0.410
     Ti     2      Dzx                  0.381
     Ti     2      Dxx-yy               0.488
     Ti     2      Dxy                  0.360
     Ti     2      Px                   0.159
     Ti     2      Py                   0.117
     Ti     2      Pz                   0.082
     Ti     3      S                    1.991
     Ti     3      Px                   1.988
     Ti     3      Py                   1.991
     Ti     3      Pz                   1.990
     Ti     3      S                    0.282
     Ti     3      Dzz                  0.516
     Ti     3      Dzy                  0.331
     Ti     3      Dzx                  0.348
     Ti     3      Dxx-yy               0.520
     Ti     3      Dxy                  0.415
     Ti     3      Px                   0.077
     Ti     3      Py                   0.110
     Ti     3      Pz                   0.148
     Nb     1      S                    1.984
     Nb     1      Px                   1.978
     Nb     1      Py                   1.979
     Nb     1      Pz                   1.972
     Nb     1      S                    0.278
     Nb     1      Dzz                  0.647
     Nb     1      Dzy                  0.609
     Nb     1      Dzx                  0.606
     Nb     1      Dxx-yy               0.587
     Nb     1      Dxy                  0.536
     Nb     1      Px                   0.052
     Nb     1      Py                   0.105
     Nb     1      Pz                   0.063
     Nb     2      S                    1.984
     Nb     2      Px                   1.976
     Nb     2      Py                   1.979
     Nb     2      Pz                   1.973
     Nb     2      S                    0.297
     Nb     2      Dzz                  0.649
     Nb     2      Dzy                  0.573
     Nb     2      Dzx                  0.618
     Nb     2      Dxx-yy               0.595
     Nb     2      Dxy                  0.528
     Nb     2      Px                   0.087
     Nb     2      Py                   0.109
     Nb     2      Pz                   0.069
     Nb     3      S                    1.984
     Nb     3      Px                   1.974
     Nb     3      Py                   1.981
     Nb     3      Pz                   1.972
     Nb     3      S                    0.270
     Nb     3      Dzz                  0.641
     Nb     3      Dzy                  0.570
     Nb     3      Dzx                  0.636
     Nb     3      Dxx-yy               0.593
     Nb     3      Dxy                  0.564
     Nb     3      Px                   0.061
     Nb     3      Py                   0.105
     Nb     3      Pz                   0.056
     Nb     4      S                    1.984
     Nb     4      Px                   1.980
     Nb     4      Py                   1.980
     Nb     4      Pz                   1.971
     Nb     4      S                    0.287
     Nb     4      Dzz                  0.643
     Nb     4      Dzy                  0.611
     Nb     4      Dzx                  0.607
     Nb     4      Dxx-yy               0.587
     Nb     4      Dxy                  0.509
     Nb     4      Px                   0.117
     Nb     4      Py                   0.103
     Nb     4      Pz                   0.049
     Nb     5      S                    1.984
     Nb     5      Px                   1.978
     Nb     5      Py                   1.975
     Nb     5      Pz                   1.980
     Nb     5      S                    0.307
     Nb     5      Dzz                  0.603
     Nb     5      Dzy                  0.555
     Nb     5      Dzx                  0.511
     Nb     5      Dxx-yy               0.636
     Nb     5      Dxy                  0.582
     Nb     5      Px                   0.109
     Nb     5      Py                   0.083
     Nb     5      Pz                   0.132
     Nb     6      S                    1.984
     Nb     6      Px                   1.975
     Nb     6      Py                   1.978
     Nb     6      Pz                   1.978
     Nb     6      S                    0.302
     Nb     6      Dzz                  0.621
     Nb     6      Dzy                  0.526
     Nb     6      Dzx                  0.566
     Nb     6      Dxx-yy               0.626
     Nb     6      Dxy                  0.576
     Nb     6      Px                   0.050
     Nb     6      Py                   0.093
     Nb     6      Pz                   0.119
  -------------------------------------------
                           Total:     240.000
  -------------------------------------------
 
     Atomic Populations (Mulliken)
     -----------------------------
Species          Ion     s      p      d      f     Total  Charge (e)
=====================================================================
  O               1     1.85   4.77   0.00   0.00   6.62    -0.62
  O               2     1.85   4.74   0.00   0.00   6.59    -0.59
  O               3     1.85   4.76   0.00   0.00   6.61    -0.61
  O               4     1.84   4.85   0.00   0.00   6.68    -0.68
  O               5     1.85   4.82   0.00   0.00   6.67    -0.67
  O               6     1.86   4.71   0.00   0.00   6.57    -0.57
  O               7     1.85   4.75   0.00   0.00   6.60    -0.60
  O               8     1.85   4.72   0.00   0.00   6.57    -0.57
  O               9     1.85   4.73   0.00   0.00   6.58    -0.58
  O              10     1.85   4.72   0.00   0.00   6.57    -0.57
  O              11     1.84   4.74   0.00   0.00   6.59    -0.59
  O              12     1.84   4.84   0.00   0.00   6.68    -0.68
  O              13     1.84   4.81   0.00   0.00   6.65    -0.65
  O              14     1.85   4.82   0.00   0.00   6.66    -0.66
  O              15     1.84   4.85   0.00   0.00   6.69    -0.69
  O              16     1.84   4.79   0.00   0.00   6.63    -0.63
  O              17     1.85   4.75   0.00   0.00   6.59    -0.59
  O              18     1.83   4.90   0.00   0.00   6.73    -0.73
  O              19     1.83   4.88   0.00   0.00   6.71    -0.71
  O              20     1.84   4.82   0.00   0.00   6.66    -0.66
  O              21     1.83   4.86   0.00   0.00   6.69    -0.69
  Ti              1     2.24   6.29   2.18   0.00  10.71     1.29
  Ti              2     2.26   6.33   2.16   0.00  10.75     1.25
  Ti              3     2.27   6.30   2.13   0.00  10.71     1.29
  Nb              1     2.26   6.15   2.98   0.00  11.39     1.61
  Nb              2     2.28   6.19   2.96   0.00  11.44     1.56
  Nb              3     2.25   6.15   3.00   0.00  11.41     1.59
  Nb              4     2.27   6.20   2.96   0.00  11.43     1.57
  Nb              5     2.29   6.26   2.89   0.00  11.44     1.56
  Nb              6     2.29   6.19   2.92   0.00  11.39     1.61
=====================================================================
 
                 Bond                   Population      Length (A)
======================================================================
              O 6  -- Nb 4                   0.72        1.75800
              O 7  -- Ti 2                   0.52        1.76016
              O 9  -- Nb 3                   0.74        1.77379
              O 10 -- Nb 1                   0.68        1.78464
              O 11 -- Ti 1                   0.51        1.78966
              O 2  -- Ti 3                   0.48        1.79529
              O 8  -- Nb 2                   0.69        1.79859
              O 17 -- Nb 3                   0.67        1.80542
              O 3  -- Nb 6                   0.60        1.82546
              O 13 -- Nb 1                   0.51        1.85515
              O 12 -- Ti 1                   0.41        1.86583
              O 16 -- Nb 2                   0.60        1.87036
              O 11 -- Nb 6                   0.51        1.89710
              O 1  -- Nb 5                   1.03        1.91285
              O 2  -- Nb 5                   0.46        1.91586
              O 17 -- Ti 2                   0.39        1.93129
              O 7  -- Nb 5                   0.42        1.93394
              O 8  -- Ti 3                   0.36        1.95170
              O 20 -- Ti 1                   0.90        1.95477
              O 5  -- Ti 3                   0.79        1.96144
              O 14 -- Ti 2                   0.87        1.96324
              O 4  -- Nb 6                   0.81        1.96610
              O 21 -- Nb 1                   0.91        1.97601
              O 16 -- Nb 4                   0.48        1.98077
              O 15 -- Nb 4                   0.89        1.98380
              O 19 -- Nb 2                   0.64        1.98735
              O 10 -- Ti 3                   0.33        1.98770
              O 18 -- Nb 3                   0.67        2.00780
              O 13 -- Ti 2                   0.33        2.01585
              O 12 -- Nb 4                   0.42        2.02318
              O 3  -- Nb 5                   0.34        2.03459
              O 9  -- Nb 6                   0.29        2.09733
              O 6  -- Nb 5                   0.22        2.14934
              O 5  -- Nb 6                   0.29        2.16971
              O 20 -- Nb 2                   0.32        2.17179
              O 4  -- Ti 3                   0.20        2.17291
              O 19 -- Ti 1                   0.19        2.18161
              O 14 -- Nb 2                   0.31        2.18799
              O 13 -- Ti 1                   0.16        2.18959
              O 21 -- Nb 3                   0.23        2.23577
              O 18 -- Nb 1                   0.20        2.25230
              O 12 -- Nb 1                   0.17        2.26372
              O 15 -- Nb 3                   0.23        2.27111
              O 19 -- Ti 2                   0.12        2.29563
              O 18 -- Nb 4                   0.07        2.41338
              O 4  -- O 5                   -0.11        2.54346
              O 18 -- O 21                  -0.11        2.56369
              O 19 -- O 20                  -0.10        2.56821
              O 14 -- O 19                  -0.09        2.62968
              O 12 -- O 13                  -0.04        2.63161
              O 13 -- O 19                  -0.04        2.65228
              O 15 -- O 18                  -0.09        2.65905
              O 3  -- O 9                   -0.03        2.66277
              O 14 -- O 17                  -0.06        2.66746
              O 2  -- O 10                  -0.02        2.67420
              O 15 -- O 16                  -0.07        2.68060
              O 12 -- O 18                  -0.05        2.68544
              O 2  -- O 8                   -0.02        2.69295
              O 1  -- O 3                   -0.06        2.71047
              O 11 -- O 20                  -0.05        2.72500
              O 1  -- O 6                   -0.05        2.72904
              O 4  -- O 9                   -0.05        2.74634
              O 5  -- O 8                   -0.05        2.75158
              O 3  -- O 11                  -0.02        2.75415
              O 15 -- O 21                  -0.03        2.75969
              O 14 -- O 20                  -0.03        2.76506
              O 1  -- O 2                   -0.04        2.76564
              O 3  -- O 6                   -0.02        2.77654
              O 8  -- O 16                  -0.01        2.77993
              O 10 -- O 21                  -0.04        2.78325
              O 13 -- O 14                  -0.04        2.79415
              O 12 -- O 15                  -0.05        2.79565
              O 5  -- O 10                  -0.04        2.79837
              O 9  -- O 17                  -0.01        2.80151
              O 8  -- O 20                  -0.02        2.80331
              O 9  -- O 21                  -0.02        2.80657
              O 7  -- O 17                  -0.01        2.82671
              O 12 -- O 21                  -0.05        2.82707
              O 13 -- O 20                  -0.05        2.82968
              O 2  -- O 7                   -0.01        2.83619
              O 2  -- O 6                   -0.02        2.84098
              O 4  -- O 11                  -0.03        2.84574
              O 7  -- O 13                  -0.01        2.84820
              O 1  -- O 7                   -0.02        2.85051
              O 11 -- O 12                  -0.01        2.86136
              O 4  -- O 8                   -0.02        2.87349
              O 5  -- O 9                   -0.02        2.87915
              O 9  -- O 18                  -0.01        2.88379
              O 8  -- O 19                  -0.01        2.88946
              O 6  -- O 16                  -0.00        2.89042
              O 3  -- O 7                   -0.01        2.89179
              O 10 -- O 13                   0.00        2.91546
              O 17 -- O 19                  -0.02        2.91744
              O 6  -- O 12                  -0.00        2.93637
              O 16 -- O 18                  -0.02        2.93876
              O 7  -- O 14                  -0.01        2.94511
              O 4  -- O 10                  -0.01        2.95089
              O 14 -- O 16                  -0.01        2.96292
              O 2  -- O 5                   -0.01        2.96732
              O 12 -- O 20                  -0.01        2.96861
              O 3  -- O 4                   -0.00        2.97657
              O 15 -- O 17                  -0.01        2.98417
              O 13 -- O 21                  -0.00        2.99279
              O 5  -- O 11                  -0.01        2.99284
======================================================================
 
 
 A BibTeX formatted list of references used in this run has been written to 
 TiNb2O7-JVAa6LNI-0K-prim.bib
 
Initialisation time =     15.91 s
Calculation time    =    218.63 s
Finalisation time   =      0.09 s
Total time          =    234.63 s
Peak Memory Use     = 936700 kB
  
Overall parallel efficiency rating: Mediocre (54%)                              
  
Data was distributed by:-
G-vector (28-way); efficiency rating: Mediocre (57%)                            
k-point (21-way); efficiency rating: Very good (83%)                            
  
Parallel notes:
1) Calculation only took 234.5 s, so efficiency estimates may be inaccurate.    
