 +-------------------------------------------------+
 |                                                 |
 |      CCC   AA    SSS  TTTTT  EEEEE  PPPP        |
 |     C     A  A  S       T    E      P   P       |
 |     C     AAAA   SS     T    EEE    PPPP        |
 |     C     A  A     S    T    E      P           |
 |      CCC  A  A  SSS     T    EEEEE  P           |
 |                                                 |
 +-------------------------------------------------+
 |                                                 |
 | Welcome to Academic Release CASTEP version 17.21|          
 | Ab Initio Total Energy Program                  |
 |                                                 |
 | Authors:                                        |
 | M. Segall, M. Probert, C. Pickard, P. Hasnip,   |
 | S. Clark, K. Refson, J. R. Yates, M. Payne      |
 |                                                 |
 | Contributors:                                   |
 | P. Lindan, P. Haynes, J. White, V. Milman,      |
 | N. Govind, M. Gibson, P. Tulip, V. Cocula,      |
 | B. Montanari, D. Quigley, M. Glover,            |
 | L. Bernasconi, A. Perlov, M. Plummer,           |
 | E. McNellis, J. Meyer, J. Gale, D. Jochym       |
 | J. Aarons, B. Walker, R. Gillen, D. Jones       |
 | T. Green, I. J. Bush, C. J. Armstrong,          |
 | E. J. Higgins, E. L. Brown, M. S. McFly,        |
 | J. Wilkins, B-C. Shih, P. J. P. Byrne           |
 |                                                 |
 | Copyright (c) 2000 - 2017                       |
 |                                                 |
 |     Distributed under the terms of an           |
 |     Agreement between the United Kingdom        |
 |     Car-Parrinello (UKCP) Consortium,           |
 |     Daresbury Laboratory and Accelrys, Inc.     |
 |                                                 |
 | Please cite                                     |
 |                                                 |
 |     "First principles methods using CASTEP"     |
 |                                                 |
 |         Zeitschrift fuer Kristallographie       |
 |           220(5-6) pp. 567-570 (2005)           |
 |                                                 |
 | S. J. Clark, M. D. Segall, C. J. Pickard,       |
 | P. J. Hasnip, M. J. Probert, K. Refson,         |
 | M. C. Payne                                     |
 |                                                 |
 |       in all publications arising from          |
 |              your use of CASTEP                 |
 |                                                 |
 +-------------------------------------------------+
 
 
 Compiled for linux_x86_64_ifort17 on Fri, 08 Sep 2017 17:58:23 +0100
 from code version 
 056e886bd5a1+ Castep172_branch Mon, 15 May 2017 14:45:35 +0100
 Compiler: Intel Fortran 17.0.2.174; Optimisation: fast
 MATHLIBS: Intel MKL(2017.0.2) (LAPACK version 3.7.0)
 FFT Lib : mkl
 Fundamental constants values: CODATA 2010
 
 Run started: Fri, 12 Jul 2019 12:41:52 +0100
 
 Atomic calculation performed for O: 1s2 2s2 2p4
 
 Converged in 61 iterations to an ae energy of -2040.902 eV
 
   ============================================================                
   | Pseudopotential Report - Date of generation 12-07-2019   |                
   ------------------------------------------------------------                
   | Element: O Ionic charge:  6.00 Level of theory: PBE      |                
   | Atomic Solver: Koelling-Harmon                           |                
   |                                                          |                
   |               Reference Electronic Structure             |                
   |         Orbital         Occupation         Energy        |                
   |            2s              2.000           -0.881        |                
   |            2p              4.000           -0.332        |                
   |                                                          |                
   |                 Pseudopotential Definition               |                
   |        Beta     l      e      Rc     scheme   norm       |                
   |          1      0   -0.881   1.697     qc      0         |                
   |          2      0    0.250   1.697     qc      0         |                
   |          3      1   -0.332   1.697     qc      0         |                
   |          4      1    0.250   1.697     qc      0         |                
   |         loc     2    0.000   1.697     pn      0         |                
   |                                                          |                
   | Augmentation charge Rinner = 1.186                       |                
   | Partial core correction Rc = 1.186                       |                
   ------------------------------------------------------------                
   | "2|1.7|7|7|9|20:21(qc=5)"                                |                
   ------------------------------------------------------------                
   |      Author: Chris J. Pickard, Cambridge University      |                
   ============================================================                
 
 Atomic calculation performed for Na: 1s2 2s2 2p6 3s1
 
 Converged in 65 iterations to an ae energy of -4418.769 eV
 
   ============================================================                
   | Pseudopotential Report - Date of generation 12-07-2019   |                
   ------------------------------------------------------------                
   | Element: Na Ionic charge:  9.00 Level of theory: PBE     |                
   | Atomic Solver: Koelling-Harmon                           |                
   |                                                          |                
   |               Reference Electronic Structure             |                
   |         Orbital         Occupation         Energy        |                
   |            2s              2.000           -2.086        |                
   |            2p              6.000           -1.054        |                
   |            3s              1.000           -0.101        |                
   |                                                          |                
   |                 Pseudopotential Definition               |                
   |        Beta     l      e      Rc     scheme   norm       |                
   |          1      0   -2.086   1.796     qc      0         |                
   |          2      0   -0.101   1.796     qc      0         |                
   |          3      0    0.250   1.796     qc      0         |                
   |          4      1   -1.054   1.796     qc      0         |                
   |          5      1    0.250   1.796     qc      0         |                
   |         loc     2    0.000   1.796     pn      0         |                
   |                                                          |                
   | Augmentation charge Rinner = 1.265                       |                
   | Partial core correction Rc = 1.265                       |                
   ------------------------------------------------------------                
   | "2|1.8|8|9|10|20U:30:21(qc=5)"                           |                
   ------------------------------------------------------------                
   |      Author: Chris J. Pickard, Cambridge University      |                
   ============================================================                
 
 Atomic calculation performed for S: 1s2 2s2 2p6 3s2 3p4
 
 Converged in 57 iterations to an ae energy of -10858.586 eV
 
   ============================================================                
   | Pseudopotential Report - Date of generation 12-07-2019   |                
   ------------------------------------------------------------                
   | Element: S Ionic charge:  6.00 Level of theory: PBE      |                
   | Atomic Solver: Koelling-Harmon                           |                
   |                                                          |                
   |               Reference Electronic Structure             |                
   |         Orbital         Occupation         Energy        |                
   |            3s              2.000           -0.634        |                
   |            3p              4.000           -0.258        |                
   |                                                          |                
   |                 Pseudopotential Definition               |                
   |        Beta     l      e      Rc     scheme   norm       |                
   |          1      0   -0.634   1.796     qc      0         |                
   |          2      0    0.250   1.796     qc      0         |                
   |          3      1   -0.258   1.796     qc      0         |                
   |          4      1    0.250   1.796     qc      0         |                
   |          5      2    0.000   1.796     qc      0         |                
   |          6      2    0.250   1.796     qc      0         |                
   |         loc     3    0.000   1.796     pn      0         |                
   |                                                          |                
   | Augmentation charge Rinner = 1.255                       |                
   | Partial core correction Rc = 1.255                       |                
   ------------------------------------------------------------                
   | "3|1.8|5|6|7|30:31:32(qc=5)"                             |                
   ------------------------------------------------------------                
   |      Author: Chris J. Pickard, Cambridge University      |                
   ============================================================                
 
 Atomic calculation performed for V: 1s2 2s2 2p6 3s2 3p6 3d3 4s2
 
 Converged in 79 iterations to an ae energy of -25823.732 eV
 
   ============================================================                
   | Pseudopotential Report - Date of generation 12-07-2019   |                
   ------------------------------------------------------------                
   | Element: V Ionic charge: 13.00 Level of theory: PBE      |                
   | Atomic Solver: Koelling-Harmon                           |                
   |                                                          |                
   |               Reference Electronic Structure             |                
   |         Orbital         Occupation         Energy        |                
   |            3s              2.000           -2.581        |                
   |            3p              6.000           -1.618        |                
   |            3d              3.000           -0.190        |                
   |            4s              2.000           -0.173        |                
   |                                                          |                
   |                 Pseudopotential Definition               |                
   |        Beta     l      e      Rc     scheme   norm       |                
   |          1      0   -2.581   1.993     qc      0         |                
   |          2      0   -0.173   1.993     qc      0         |                
   |          3      0    0.250   1.993     qc      0         |                
   |          4      1   -1.618   1.993     qc      0         |                
   |          5      1    0.250   1.993     qc      0         |                
   |          6      2   -0.190   1.993     qc      0         |                
   |          7      2    0.250   1.993     qc      0         |                
   |         loc     3    0.000   1.993     pn      0         |                
   |                                                          |                
   | Augmentation charge Rinner = 0.998                       |                
   | Partial core correction Rc = 0.998                       |                
   ------------------------------------------------------------                
   | "3|2.0|2.0|1.0|7|7|9|30U:40:31:32(qc=5)"                 |                
   ------------------------------------------------------------                
   |      Author: Chris J. Pickard, Cambridge University      |                
   ============================================================                
 
 Pseudo atomic calculation performed for O 2s2 2p4
 
 Converged in 12 iterations to a total energy of -431.3437 eV
 
 
 Pseudo atomic calculation performed for Na 2s2 2p6 3s1
 
 Converged in 19 iterations to a total energy of -1293.0763 eV
 
 
 Pseudo atomic calculation performed for S 3s2 3p4
 
 Converged in 19 iterations to a total energy of -299.4518 eV
 
 
 Pseudo atomic calculation performed for V 3s2 3p6 3d3 4s2
 
 Converged in 33 iterations to a total energy of -1945.7424 eV
 
 Calculation parallelised over 4 processes.
 Data is distributed by k-point(4-way)

 ************************************ Title ************************************
 

 ***************************** General Parameters ******************************
  
 output verbosity                               : normal  (1)
 write checkpoint data to                       : 108833.check
 type of calculation                            : geometry optimization
 stress calculation                             : on
 density difference calculation                 : on
 electron localisation func (ELF) calculation   : off
 Hirshfeld analysis                             : off
 unlimited duration calculation
 timing information                             : on
 memory usage estimate                          : on
 write final potential to formatted file        : off
 write final density to formatted file          : on
 write BibTeX reference list                    : on
 write OTFG pseudopotential files               : on
 write electrostatic potential file             : on
 write bands file                               : on
 checkpoint writing                             : both castep_bin and check files
  
 output         length unit                     : A
 output           mass unit                     : amu
 output           time unit                     : ps
 output         charge unit                     : e
 output           spin unit                     : hbar/2
 output         energy unit                     : eV
 output          force unit                     : eV/A
 output       velocity unit                     : A/ps
 output       pressure unit                     : GPa
 output     inv_length unit                     : 1/A
 output      frequency unit                     : cm-1
 output force constant unit                     : eV/A**2
 output         volume unit                     : A**3
 output   IR intensity unit                     : (D/A)**2/amu
 output         dipole unit                     : D
 output         efield unit                     : eV/A/e
 output        entropy unit                     : J/mol/K
  
 wavefunctions paging                           : none
 random number generator seed                   : randomised (124152418)
 data distribution                              : optimal for this architecture
 optimization strategy                          : maximize speed(+++)

 *********************** Exchange-Correlation Parameters ***********************
  
 using functional                               : Perdew Burke Ernzerhof
 relativistic treatment                         : Koelling-Harmon
 DFT+D: Semi-empirical dispersion correction    : off

 ************************* Pseudopotential Parameters **************************
  
 pseudopotential representation                 : reciprocal space
 <beta|phi> representation                      : reciprocal space
 spin-orbit coupling                            : off

 **************************** Basis Set Parameters *****************************
  
 plane wave basis set cut-off                   :   800.0000   eV
 size of standard grid                          :     2.0000
 size of   fine   gmax                          :    28.9810   1/A
 finite basis set correction                    : none

 **************************** Electronic Parameters ****************************
  
 number of  electrons                           :  388.0    
 net charge of system                           :  0.000    
 treating system as non-spin-polarized
 number of bands                                :        233

 ********************* Electronic Minimization Parameters **********************
  
 Method: Treating system as metallic with density mixing treatment of electrons,
         and number of  SD  steps               :          1
         and number of  CG  steps               :          4
  
 total energy / atom convergence tol.           : 0.1000E-04   eV
 eigen-energy convergence tolerance             : 0.1000E-05   eV
 max force / atom convergence tol.              : ignored
 convergence tolerance window                   :          3   cycles
 max. number of SCF cycles                      :         30
 number of fixed-spin iterations                :         10
 smearing scheme                                : Gaussian
 smearing width                                 : 0.2000       eV
 Fermi energy convergence tolerance             : 0.2721E-13   eV
 periodic dipole correction                     : NONE

 ************************** Density Mixing Parameters **************************
  
 density-mixing scheme                          : Pulay
 max. length of mixing history                  :         20
 charge density mixing amplitude                : 0.4000    
 cut-off energy for mixing                      :  800.0       eV

 *********************** Population Analysis Parameters ************************
  
 Population analysis with cutoff                :  3.000       A

 ********************** Geometry Optimization Parameters ***********************
  
 optimization method                            : BFGS
 variable cell method                           : fixed basis quality
 max. number of steps                           :          2
 estimated bulk modulus                         :  500.0       GPa
 estimated <frequency>                          :  1668.       cm-1
 geom line minimiser                            : on
 with line minimiser tolerance                  :     0.4000
 total energy convergence tolerance             : 0.2000E-04   eV/atom
        max ionic |force| tolerance             : 0.5000E-01   eV/A
 max ionic |displacement| tolerance             : 0.1000E-02   A
   max |stress component| tolerance             : 0.1000       GPa
 convergence tolerance window                   :          2   steps
 backup results every                           :          5   steps
 write geom trajectory file                     : on

 *******************************************************************************
  
 
                           -------------------------------
                                      Unit Cell
                           -------------------------------
        Real Lattice(A)                      Reciprocal Lattice(1/A)
   6.3891740   0.0000000   0.0000000        0.9834112   0.0000009   0.0000096
  -0.0000062   6.9150500   0.0000000        0.0000000   0.9086247   0.0001770
  -0.0001651  -0.0033085  16.9827527        0.0000000   0.0000000   0.3699745
 
                       Lattice parameters(A)       Cell Angles
                    a =    6.389174          alpha =   90.011162
                    b =    6.915050          beta  =   90.000557
                    c =   16.982753          gamma =   90.000051
 
                       Current cell volume =  750.322768       A**3
                                   density =    1.626221   AMU/A**3
                                           =    2.700403     g/cm^3
 
                           -------------------------------
                                     Cell Contents
                           -------------------------------
                         Total number of ions in cell =   56
                      Total number of species in cell =    4
                        Max number of any one species =   36
 
            xxxxxxxxxxxxxxxxxxxxxxxxxxxxxxxxxxxxxxxxxxxxxxxxxxxxxxxxxxxx
            x  Element    Atom        Fractional coordinates of atoms  x
            x            Number           u          v          w      x
            x----------------------------------------------------------x
            x  O            1         0.038245   0.507323   0.019069   x 
            x  O            2         0.022927   0.097425   0.022140   x 
            x  O            3         0.547996   0.619169   0.092559   x 
            x  O            4         0.721028   0.297166   0.095791   x 
            x  O            5         0.345780   0.311176   0.103885   x 
            x  O            6         0.010930   0.550757   0.176688   x 
            x  O            7         0.019361   0.141443   0.185686   x 
            x  O            8         0.723588   0.934643   0.223759   x 
            x  O            9         0.275619   0.773505   0.232328   x 
            x  O           10         0.724385   0.273538   0.267714   x 
            x  O           11         0.276422   0.434667   0.276249   x 
            x  O           12         0.980626   0.641471   0.314335   x 
            x  O           13         0.989053   0.050814   0.323340   x 
            x  O           14         0.654225   0.811157   0.396106   x 
            x  O           15         0.278962   0.797159   0.404208   x 
            x  O           16         0.452010   0.119161   0.407476   x 
            x  O           17         0.977085   0.597346   0.477846   x 
            x  O           18         0.961752   0.007365   0.480956   x 
            x  O           19         0.461749   0.492615   0.519034   x 
            x  O           20         0.477090   0.902658   0.522152   x 
            x  O           21         0.952007   0.380838   0.592523   x 
            x  O           22         0.778971   0.702835   0.595800   x 
            x  O           23         0.154213   0.688842   0.603898   x 
            x  O           24         0.489034   0.449178   0.676664   x 
            x  O           25         0.480616   0.858534   0.685664   x 
            x  O           26         0.776420   0.065342   0.723750   x 
            x  O           27         0.224379   0.226462   0.732289   x 
            x  O           28         0.775619   0.726497   0.767670   x 
            x  O           29         0.223590   0.565366   0.776243   x 
            x  O           30         0.519368   0.358565   0.814312   x 
            x  O           31         0.510945   0.949235   0.823305   x 
            x  O           32         0.845795   0.188821   0.896112   x 
            x  O           33         0.221014   0.202829   0.904202   x 
            x  O           34         0.047996   0.880830   0.907439   x 
            x  O           35         0.522924   0.402578   0.977863   x 
            x  O           36         0.538248   0.992652   0.980939   x 
            x  Na           1         0.823274   0.848508   0.089881   x 
            x  Na           2         0.371396   0.106215   0.238524   x 
            x  Na           3         0.628616   0.606226   0.261485   x 
            x  Na           4         0.176737   0.348502   0.410117   x 
            x  Na           5         0.676735   0.151506   0.589881   x 
            x  Na           6         0.128617   0.893779   0.738516   x 
            x  Na           7         0.871395   0.393791   0.761472   x 
            x  Na           8         0.323277   0.651498   0.910121   x 
            x  S            1         0.534746   0.413950   0.067774   x 
            x  S            2         0.856844   0.102493   0.249857   x 
            x  S            3         0.143152   0.602487   0.250173   x 
            x  S            4         0.465255   0.913950   0.432241   x 
            x  S            5         0.965254   0.586055   0.567757   x 
            x  S            6         0.643156   0.897517   0.749821   x 
            x  S            7         0.356838   0.397510   0.750148   x 
            x  S            8         0.034747   0.086053   0.932229   x 
            x  V            1         0.032445   0.350947   0.089655   x 
            x  V            2         0.967549   0.850963   0.410360   x 
            x  V            3         0.467546   0.649040   0.589628   x 
            x  V            4         0.532448   0.149053   0.910358   x 
            xxxxxxxxxxxxxxxxxxxxxxxxxxxxxxxxxxxxxxxxxxxxxxxxxxxxxxxxxxxx
 
 
                         No user defined ionic velocities
 
                           -------------------------------
                                   Details of Species
                           -------------------------------
 
                               Mass of species in AMU
                                    O   15.9994000
                                    Na   22.9897700
                                    S   32.0660000
                                    V   50.9415000
 
                          Electric Quadrupole Moment (Barn)
                                    O   -0.0255800 Isotope 17
                                    Na    0.1040000 Isotope 23
                                    S   -0.0678000 Isotope 33
                                    V   -0.0520000 Isotope 51
 
                          Files used for pseudopotentials:
                                    O 2|1.7|7|7|9|20:21(qc=5)
                                    Na 2|1.8|8|9|10|20U:30:21(qc=5)
                                    S 3|1.8|5|6|7|30:31:32(qc=5)
                                    V 3|2.0|2.0|1.0|7|7|9|30U:40:31:32(qc=5)
 
                           -------------------------------
                              k-Points For BZ Sampling
                           -------------------------------
                       MP grid size for SCF calculation is  4  3  2
                            with an offset of   0.000  0.000  0.000
                       Number of kpoints used =            12
 
                           -------------------------------
                               Symmetry and Constraints
                           -------------------------------
 
                      Maximum deviation from symmetry =  0.00000         ANG
 
                      Number of symmetry operations   =           1
                      Number of ionic constraints     =           3
                      Point group of crystal =     1: C1, 1, 1
                      Space group of crystal =     4: P2_1, P 2yb
 
             Set iprint > 1 for details on symmetry rotations/translations
 
                         Centre of mass is constrained
             Set iprint > 1 for details of linear ionic constraints
 
                         Number of cell constraints= 0
                         Cell constraints are:  1 2 3 4 5 6
 
                         External pressure/stress (GPa)
                          0.00000   0.00000   0.00000
                                    0.00000   0.00000
                                              0.00000
  
+---------------- MEMORY AND SCRATCH DISK ESTIMATES PER PROCESS --------------+
|                                                     Memory          Disk    |
| Baseline code, static data and system overhead      164.0 MB         0.0 MB |
| BLAS internal memory storage                          0.0 MB         0.0 MB |
| Model and support data                             3086.0 MB         0.0 MB |
| Electronic energy minimisation requirements        1349.0 MB         0.0 MB |
| Force calculation requirements                       89.1 MB         0.0 MB |
| Stress calculation requirements                      98.4 MB         0.0 MB |
|                                               ----------------------------- |
| Approx. total storage required per process         4599.0 MB         0.0 MB |
|                                                                             |
| Requirements will fluctuate during execution and may exceed these estimates |
+-----------------------------------------------------------------------------+
Calculating total energy with cut-off of  800.000 eV.
------------------------------------------------------------------------ <-- SCF
SCF loop      Energy           Fermi           Energy gain       Timer   <-- SCF
                               energy          per atom          (sec)   <-- SCF
------------------------------------------------------------------------ <-- SCF
Initial  -2.70193997E+004  0.00000000E+000                        29.71  <-- SCF
      1  -3.52568957E+004  2.93708434E+000   1.47098144E+002     185.10  <-- SCF
      2  -3.64268650E+004  3.02643329E+000   2.08923077E+001     288.46  <-- SCF
      3  -3.64554659E+004  2.86851703E+000   5.10730541E-001     399.99  <-- SCF
      4  -3.64117210E+004  7.53887081E-001  -7.81157821E-001     536.25  <-- SCF
      5  -3.64084736E+004  3.27547232E+000  -5.79894832E-002     678.29  <-- SCF
      6  -3.64048880E+004  2.57332678E+000  -6.40291176E-002     813.47  <-- SCF
      7  -3.64043675E+004  2.53328869E+000  -9.29519410E-003     950.15  <-- SCF
      8  -3.64048177E+004  2.19287952E+000   8.03946879E-003    1085.11  <-- SCF
      9  -3.64037505E+004  2.22631800E+000  -1.90561151E-002    1219.68  <-- SCF
     10  -3.64044972E+004  2.35100954E+000   1.33331983E-002    1351.78  <-- SCF
     11  -3.64036220E+004  2.53411490E+000  -1.56292855E-002    1483.47  <-- SCF
     12  -3.64042088E+004  2.53805475E+000   1.04788043E-002    1615.86  <-- SCF
     13  -3.64042426E+004  2.55129897E+000   6.04418924E-004    1750.51  <-- SCF
     14  -3.64042358E+004  2.56348456E+000  -1.21185388E-004    1873.94  <-- SCF
     15  -3.64042445E+004  2.56727047E+000   1.55529735E-004    1988.80  <-- SCF
     16  -3.64042445E+004  2.56620872E+000  -1.28124341E-006    2090.99  <-- SCF
     17  -3.64042444E+004  2.56528639E+000  -7.31431927E-007    2188.85  <-- SCF
------------------------------------------------------------------------ <-- SCF
 
Final energy, E             =  -36403.82020524     eV
Final free energy (E-TS)    =  -36404.24443299     eV
(energies not corrected for finite basis set)
 
NB est. 0K energy (E-0.5TS)      =  -36404.03231911     eV
 

Writing analysis data to 108833.castep_bin

Writing model to 108833.check

WARNING - doing cell minimisation without finite basis correction:
        => now searching for a stationary and not minimum energy
 
+---------------- MEMORY AND SCRATCH DISK ESTIMATES PER PROCESS --------------+
|                                                     Memory          Disk    |
| Model and support data                             3068.8 MB         0.0 MB |
| Electronic energy minimisation requirements        1349.0 MB         0.0 MB |
| Geometry minimisation requirements                 1776.3 MB         0.0 MB |
|                                               ----------------------------- |
| Approx. total storage required per process         6194.1 MB         0.0 MB |
|                                                                             |
| Requirements will fluctuate during execution and may exceed these estimates |
+-----------------------------------------------------------------------------+
 
 
 ******************************** Constrained Forces ********************************
 *                                                                                  *
 *                           Cartesian components (eV/A)                            *
 * -------------------------------------------------------------------------------- *
 *                         x                    y                    z              *
 *                                                                                  *
 * O               1      0.03252             -0.03605              0.04451         *
 * O               2      0.00412              0.03552              0.01078         *
 * O               3     -0.00574             -0.02603             -0.03899         *
 * O               4      0.00446              0.00425              0.02523         *
 * O               5      0.00933             -0.00134              0.01930         *
 * O               6      0.00364             -0.03479              0.01510         *
 * O               7      0.01402              0.00815              0.04749         *
 * O               8     -0.01093              0.00437             -0.02454         *
 * O               9      0.01750             -0.02426             -0.01729         *
 * O              10     -0.01634             -0.02899              0.01626         *
 * O              11      0.01145              0.00030              0.02696         *
 * O              12     -0.01562              0.00562             -0.05003         *
 * O              13      0.00505             -0.03670             -0.01545         *
 * O              14     -0.00831             -0.00318             -0.01495         *
 * O              15     -0.00598              0.00053             -0.01806         *
 * O              16      0.00601             -0.02816              0.03682         *
 * O              17     -0.00546              0.04153             -0.01082         *
 * O              18     -0.03253             -0.03284             -0.04023         *
 * O              19     -0.03342              0.03889              0.04415         *
 * O              20     -0.00453             -0.04184              0.00978         *
 * O              21      0.00554              0.02977             -0.03782         *
 * O              22     -0.00358             -0.00504              0.02284         *
 * O              23     -0.01213              0.00010              0.01545         *
 * O              24     -0.00538              0.03922              0.01103         *
 * O              25     -0.01563             -0.00812              0.04431         *
 * O              26      0.01160              0.00112             -0.02783         *
 * O              27     -0.01705              0.02980             -0.01407         *
 * O              28      0.01758              0.02589              0.01607         *
 * O              29     -0.01130             -0.00257              0.02568         *
 * O              30      0.01472             -0.00755             -0.04556         *
 * O              31      0.00312              0.03753             -0.01312         *
 * O              32      0.00747              0.00306             -0.01868         *
 * O              33      0.00654             -0.00211             -0.02412         *
 * O              34     -0.00583              0.02955              0.04078         *
 * O              35      0.00368             -0.03401             -0.01077         *
 * O              36      0.03241              0.03892             -0.04495         *
 * Na              1     -0.04097             -0.00077             -0.05229         *
 * Na              2      0.00026              0.01488             -0.02044         *
 * Na              3     -0.00085              0.01494              0.02063         *
 * Na              4      0.04160             -0.00094              0.05274         *
 * Na              5      0.04061              0.00309             -0.05171         *
 * Na              6     -0.00075             -0.01360             -0.02021         *
 * Na              7      0.00024             -0.01345              0.02048         *
 * Na              8     -0.04089              0.00226              0.05252         *
 * S               1      0.00830              0.00992             -0.01113         *
 * S               2     -0.00558             -0.00619             -0.00182         *
 * S               3      0.00652             -0.00574              0.00384         *
 * S               4     -0.00879              0.01188              0.00599         *
 * S               5     -0.00831             -0.01316             -0.00909         *
 * S               6      0.00528              0.00576             -0.00309         *
 * S               7     -0.00639              0.00453              0.00852         *
 * S               8      0.00832             -0.01295              0.01177         *
 * V               1      0.00805              0.00898             -0.00712         *
 * V               2     -0.00740             -0.00885             -0.00910         *
 * V               3     -0.00850             -0.00872             -0.00312         *
 * V               4      0.00822             -0.01241              0.00739         *
 *                                                                                  *
 ************************************************************************************
 
 ***************** Stress Tensor *****************
 *                                               *
 *          Cartesian components (GPa)           *
 * --------------------------------------------- *
 *             x             y             z     *
 *                                               *
 *  x      0.010195      0.005546      0.002222  *
 *  y      0.005546     -0.044508     -0.036950  *
 *  z      0.002222     -0.036950     -0.034682  *
 *                                               *
 *  Pressure:    0.0230                          *
 *                                               *
 *************************************************
 BFGS: finished iteration     0 with enthalpy= -3.64042444E+004 eV
  
 +-----------+-----------------+-----------------+------------+-----+ <-- BFGS
 | Parameter |      value      |    tolerance    |    units   | OK? | <-- BFGS
 +-----------+-----------------+-----------------+------------+-----+ <-- BFGS
 |  dE/ion   |   0.000000E+000 |   2.000000E-005 |         eV | No  | <-- BFGS
 |  |F|max   |   6.771687E-002 |   5.000000E-002 |       eV/A | No  | <-- BFGS
 |  |dR|max  |   0.000000E+000 |   1.000000E-003 |          A | No  | <-- BFGS
 |   Smax    |   4.450777E-002 |   1.000000E-001 |        GPa | Yes | <-- BFGS
 +-----------+-----------------+-----------------+------------+-----+ <-- BFGS
  

================================================================================
 Starting BFGS iteration          1 ...
================================================================================
  
 +------------+-------------+-------------+-----------------+ <-- min BFGS
 |    Step    |   lambda    |   F.delta'  |    enthalpy     | <-- min BFGS
 +------------+-------------+-------------+-----------------+ <-- min BFGS
 |  previous  |    0.000000 |    0.094453 |   -36404.244433 | <-- min BFGS
 +------------+-------------+-------------+-----------------+ <-- min BFGS
  

--------------------------------------------------------------------------------
 BFGS: starting iteration         1 with trial guess (lambda=  1.000000)
--------------------------------------------------------------------------------
 
+---------------- MEMORY AND SCRATCH DISK ESTIMATES PER PROCESS --------------+
|                                                     Memory          Disk    |
| Model and support data                             3068.8 MB         0.0 MB |
| Electronic energy minimisation requirements        1349.0 MB         0.0 MB |
| Geometry minimisation requirements                 1776.3 MB         0.0 MB |
|                                               ----------------------------- |
| Approx. total storage required per process         6194.1 MB         0.0 MB |
|                                                                             |
| Requirements will fluctuate during execution and may exceed these estimates |
+-----------------------------------------------------------------------------+
 
 
                           -------------------------------
                                      Unit Cell
                           -------------------------------
        Real Lattice(A)              Reciprocal Lattice(1/A)
   6.3891306  -0.0000236  -0.0000095        0.9834179   0.0000045   0.0000110
  -0.0000317   6.9152552   0.0001703        0.0000034   0.9085977   0.0001546
  -0.0001902  -0.0028902  16.9831453        0.0000005  -0.0000091   0.3699659
 
                       Lattice parameters(A)       Cell Angles
                    a =    6.389131          alpha =   90.008339
                    b =    6.915255          beta  =   90.000727
                    c =   16.983146          gamma =   90.000475
 
                Current cell volume =  750.357281 A**3
 
                           -------------------------------
                                     Cell Contents
                           -------------------------------
 
            xxxxxxxxxxxxxxxxxxxxxxxxxxxxxxxxxxxxxxxxxxxxxxxxxxxxxxxxxxxxxxxxx
            x  Element         Atom        Fractional coordinates of atoms  x
            x                 Number           u          v          w      x
            x---------------------------------------------------------------x
            x  O                 1         0.038268   0.507300   0.019081   x
            x  O                 2         0.022930   0.097448   0.022143   x
            x  O                 3         0.547992   0.619152   0.092549   x
            x  O                 4         0.721031   0.297169   0.095798   x
            x  O                 5         0.345787   0.311175   0.103890   x
            x  O                 6         0.010933   0.550734   0.176692   x
            x  O                 7         0.019371   0.141448   0.185699   x
            x  O                 8         0.723580   0.934646   0.223753   x
            x  O                 9         0.275631   0.773489   0.232323   x
            x  O                10         0.724374   0.273519   0.267718   x
            x  O                11         0.276430   0.434667   0.276256   x
            x  O                12         0.980615   0.641475   0.314322   x
            x  O                13         0.989057   0.050790   0.323336   x
            x  O                14         0.654219   0.811155   0.396102   x
            x  O                15         0.278958   0.797159   0.404203   x
            x  O                16         0.452014   0.119143   0.407486   x
            x  O                17         0.977081   0.597373   0.477843   x
            x  O                18         0.961729   0.007344   0.480945   x
            x  O                19         0.461726   0.492640   0.519046   x
            x  O                20         0.477087   0.902631   0.522155   x
            x  O                21         0.952011   0.380857   0.592513   x
            x  O                22         0.778968   0.702832   0.595806   x
            x  O                23         0.154204   0.688842   0.603902   x
            x  O                24         0.489030   0.449203   0.676667   x
            x  O                25         0.480605   0.858529   0.685676   x
            x  O                26         0.776428   0.065343   0.723743   x
            x  O                27         0.224367   0.226481   0.732285   x
            x  O                28         0.775631   0.726514   0.767674   x
            x  O                29         0.223582   0.565364   0.776250   x
            x  O                30         0.519378   0.358560   0.814300   x
            x  O                31         0.510947   0.949259   0.823302   x
            x  O                32         0.845800   0.188823   0.896107   x
            x  O                33         0.221019   0.202828   0.904196   x
            x  O                34         0.047992   0.880849   0.907450   x
            x  O                35         0.522927   0.402556   0.977860   x
            x  O                36         0.538271   0.992677   0.980927   x
            x  Na                1         0.823245   0.848507   0.089867   x
            x  Na                2         0.371396   0.106225   0.238519   x
            x  Na                3         0.628615   0.606236   0.261490   x
            x  Na                4         0.176766   0.348501   0.410131   x
            x  Na                5         0.676764   0.151508   0.589867   x
            x  Na                6         0.128616   0.893770   0.738511   x
            x  Na                7         0.871395   0.393782   0.761477   x
            x  Na                8         0.323248   0.651499   0.910135   x
            x  S                 1         0.534752   0.413956   0.067771   x
            x  S                 2         0.856840   0.102489   0.249857   x
            x  S                 3         0.143157   0.602483   0.250174   x
            x  S                 4         0.465249   0.913958   0.432243   x
            x  S                 5         0.965248   0.586046   0.567755   x
            x  S                 6         0.643160   0.897521   0.749820   x
            x  S                 7         0.356834   0.397513   0.750150   x
            x  S                 8         0.034753   0.086045   0.932232   x
            x  V                 1         0.032451   0.350953   0.089653   x
            x  V                 2         0.967544   0.850957   0.410358   x
            x  V                 3         0.467540   0.649034   0.589627   x
            x  V                 4         0.532454   0.149045   0.910360   x
            xxxxxxxxxxxxxxxxxxxxxxxxxxxxxxxxxxxxxxxxxxxxxxxxxxxxxxxxxxxxxxxxx
 
 
------------------------------------------------------------------------ <-- SCF
SCF loop      Energy           Fermi           Energy gain       Timer   <-- SCF
                               energy          per atom          (sec)   <-- SCF
------------------------------------------------------------------------ <-- SCF
Initial  -3.64038157E+004  0.00000000E+000                      2638.17  <-- SCF
      1  -3.64045104E+004  2.59520425E+000   1.24052712E-002    2768.98  <-- SCF
      2  -3.64045105E+004  2.59520215E+000   1.41620433E-006    2871.28  <-- SCF
      3  -3.64096322E+004  1.90485628E+000   9.14600499E-002    3007.97  <-- SCF
      4  -3.64055160E+004  2.56815072E+000  -7.35044503E-002    3145.85  <-- SCF
      5  -3.64041577E+004  2.53081506E+000  -2.42538151E-002    3277.47  <-- SCF
      6  -3.64039592E+004  2.54708447E+000  -3.54539243E-003    3413.58  <-- SCF
      7  -3.64040647E+004  2.56195056E+000   1.88451438E-003    3551.39  <-- SCF
      8  -3.64041103E+004  2.56844198E+000   8.12821806E-004    3679.75  <-- SCF
      9  -3.64041709E+004  2.55966460E+000   1.08251567E-003    3809.36  <-- SCF
     10  -3.64042560E+004  2.55997080E+000   1.52032557E-003    3934.82  <-- SCF
     11  -3.64042173E+004  2.55863790E+000  -6.90538555E-004    4056.95  <-- SCF
     12  -3.64042347E+004  2.56264954E+000   3.09179267E-004    4167.02  <-- SCF
     13  -3.64042448E+004  2.56405536E+000   1.81034320E-004    4271.98  <-- SCF
     14  -3.64042433E+004  2.56427335E+000  -2.76087325E-005    4370.56  <-- SCF
     15  -3.64042437E+004  2.56406213E+000   7.27423989E-006    4465.76  <-- SCF
     16  -3.64042447E+004  2.56408503E+000   1.93139171E-005    4560.98  <-- SCF
     17  -3.64042448E+004  2.56391529E+000   6.01461726E-007    4653.71  <-- SCF
     18  -3.64042448E+004  2.56415267E+000   1.97295482E-007    4745.95  <-- SCF
------------------------------------------------------------------------ <-- SCF
 
Final energy, E             =  -36403.82052261     eV
Final free energy (E-TS)    =  -36404.24478732     eV
(energies not corrected for finite basis set)
 
NB est. 0K energy (E-0.5TS)      =  -36404.03265496     eV
 
 
 ******************************** Constrained Forces ********************************
 *                                                                                  *
 *                           Cartesian components (eV/A)                            *
 * -------------------------------------------------------------------------------- *
 *                         x                    y                    z              *
 *                                                                                  *
 * O               1      0.03277             -0.01236              0.02440         *
 * O               2      0.00544              0.02372              0.01146         *
 * O               3     -0.00571             -0.01245             -0.05003         *
 * O               4     -0.00236              0.00984              0.01674         *
 * O               5      0.01679              0.00199              0.00859         *
 * O               6      0.00875             -0.03249              0.00839         *
 * O               7      0.01204              0.00691              0.03899         *
 * O               8     -0.00441              0.00978             -0.02931         *
 * O               9      0.01198             -0.02947             -0.02407         *
 * O              10     -0.01115             -0.03428              0.02087         *
 * O              11      0.00511              0.00608              0.03047         *
 * O              12     -0.01246              0.00722             -0.03885         *
 * O              13     -0.00802             -0.03716             -0.00616         *
 * O              14     -0.01645              0.00437             -0.00408         *
 * O              15      0.00071              0.01140             -0.01308         *
 * O              16      0.00590             -0.01200              0.04713         *
 * O              17     -0.00646              0.03450             -0.01172         *
 * O              18     -0.03266             -0.02027             -0.03132         *
 * O              19     -0.03277              0.01848              0.02648         *
 * O              20     -0.00621             -0.03284              0.00541         *
 * O              21      0.00606              0.01483             -0.05231         *
 * O              22      0.00052             -0.01172              0.00849         *
 * O              23     -0.01511             -0.00453             -0.00033         *
 * O              24     -0.00806              0.03842              0.00119         *
 * O              25     -0.01160             -0.00798              0.03624         *
 * O              26      0.00284             -0.00821             -0.03127         *
 * O              27     -0.00879              0.03671             -0.02010         *
 * O              28      0.00961              0.03258              0.02246         *
 * O              29     -0.00183             -0.01311              0.02878         *
 * O              30      0.01164             -0.00939             -0.03482         *
 * O              31      0.00828              0.03688             -0.00151         *
 * O              32      0.01233             -0.00268             -0.00311         *
 * O              33      0.00224             -0.01003             -0.01161         *
 * O              34     -0.00603              0.01594              0.05569         *
 * O              35      0.00545             -0.02458             -0.00632         *
 * O              36      0.03260              0.01427             -0.02215         *
 * Na              1     -0.03736             -0.00246             -0.05416         *
 * Na              2      0.00329              0.01212             -0.02242         *
 * Na              3     -0.00422              0.01111              0.02297         *
 * Na              4      0.03810             -0.00306              0.05505         *
 * Na              5      0.03735              0.00296             -0.05593         *
 * Na              6     -0.00321             -0.01225             -0.02368         *
 * Na              7      0.00281             -0.01217              0.02204         *
 * Na              8     -0.03718              0.00192              0.05557         *
 * S               1      0.00595             -0.00336             -0.00897         *
 * S               2     -0.01387             -0.00848             -0.00579         *
 * S               3      0.01440             -0.01182              0.00232         *
 * S               4     -0.00491             -0.00221              0.00843         *
 * S               5     -0.00630             -0.00027             -0.00543         *
 * S               6      0.01323              0.00966             -0.00281         *
 * S               7     -0.01501              0.00947              0.00328         *
 * S               8      0.00590              0.00055              0.00713         *
 * V               1      0.00759             -0.01104              0.01860         *
 * V               2     -0.00744             -0.00746             -0.01264         *
 * V               3     -0.00746              0.00849              0.01952         *
 * V               4      0.00738              0.00995             -0.02267         *
 *                                                                                  *
 ************************************************************************************
 
 ***************** Stress Tensor *****************
 *                                               *
 *          Cartesian components (GPa)           *
 * --------------------------------------------- *
 *             x             y             z     *
 *                                               *
 *  x      0.011346     -0.000046      0.000104  *
 *  y     -0.000046     -0.054692     -0.005315  *
 *  z      0.000104     -0.005315     -0.039762  *
 *                                               *
 *  Pressure:    0.0277                          *
 *                                               *
 *************************************************
  
 +------------+-------------+-------------+-----------------+ <-- min BFGS
 |    Step    |   lambda    |   F.delta'  |    enthalpy     | <-- min BFGS
 +------------+-------------+-------------+-----------------+ <-- min BFGS
 |  previous  |    0.000000 |    0.094453 |   -36404.244433 | <-- min BFGS
 | trial step |    1.000000 |    0.079801 |   -36404.244787 | <-- min BFGS
 +------------+-------------+-------------+-----------------+ <-- min BFGS
  

--------------------------------------------------------------------------------
 BFGS: improving iteration         1 with line minimization (lambda=  6.446417)
--------------------------------------------------------------------------------
 
+---------------- MEMORY AND SCRATCH DISK ESTIMATES PER PROCESS --------------+
|                                                     Memory          Disk    |
| Model and support data                             3069.0 MB         0.0 MB |
| Electronic energy minimisation requirements        1349.3 MB         0.0 MB |
| Geometry minimisation requirements                 1776.7 MB         0.0 MB |
|                                               ----------------------------- |
| Approx. total storage required per process         6195.0 MB         0.0 MB |
|                                                                             |
| Requirements will fluctuate during execution and may exceed these estimates |
+-----------------------------------------------------------------------------+
 
 
                           -------------------------------
                                      Unit Cell
                           -------------------------------
        Real Lattice(A)              Reciprocal Lattice(1/A)
   6.3888941  -0.0001523  -0.0000610        0.9834543   0.0000243   0.0000189
  -0.0001710   6.9163727   0.0010981        0.0000217   0.9084509   0.0000328
  -0.0003272  -0.0006123  16.9852834        0.0000035  -0.0000587   0.3699194
 
                       Lattice parameters(A)       Cell Angles
                    a =    6.388894          alpha =   89.992969
                    b =    6.916373          beta  =   90.001651
                    c =   16.985283          gamma =   90.002782
 
                Current cell volume =  750.545240 A**3
 
                           -------------------------------
                                     Cell Contents
                           -------------------------------
 
            xxxxxxxxxxxxxxxxxxxxxxxxxxxxxxxxxxxxxxxxxxxxxxxxxxxxxxxxxxxxxxxxx
            x  Element         Atom        Fractional coordinates of atoms  x
            x                 Number           u          v          w      x
            x---------------------------------------------------------------x
            x  O                 1         0.038392   0.507172   0.019145   x
            x  O                 2         0.022946   0.097574   0.022158   x
            x  O                 3         0.547970   0.619060   0.092493   x
            x  O                 4         0.721048   0.297184   0.095834   x
            x  O                 5         0.345822   0.311170   0.103918   x
            x  O                 6         0.010946   0.550612   0.176714   x
            x  O                 7         0.019424   0.141477   0.185767   x
            x  O                 8         0.723539   0.934661   0.223717   x
            x  O                 9         0.275698   0.773404   0.232299   x
            x  O                10         0.724311   0.273417   0.267742   x
            x  O                11         0.276474   0.434668   0.276295   x
            x  O                12         0.980555   0.641494   0.314250   x
            x  O                13         0.989076   0.050660   0.323314   x
            x  O                14         0.654187   0.811144   0.396081   x
            x  O                15         0.278935   0.797161   0.404177   x
            x  O                16         0.452037   0.119043   0.407539   x
            x  O                17         0.977060   0.597520   0.477828   x
            x  O                18         0.961605   0.007228   0.480887   x
            x  O                19         0.461598   0.492778   0.519109   x
            x  O                20         0.477069   0.902483   0.522169   x
            x  O                21         0.952032   0.380962   0.592459   x
            x  O                22         0.778955   0.702814   0.595839   x
            x  O                23         0.154158   0.688842   0.603924   x
            x  O                24         0.489010   0.449342   0.676683   x
            x  O                25         0.480545   0.858500   0.685739   x
            x  O                26         0.776473   0.065347   0.723703   x
            x  O                27         0.224302   0.226587   0.732265   x
            x  O                28         0.775699   0.726605   0.767697   x
            x  O                29         0.223539   0.565355   0.776287   x
            x  O                30         0.519435   0.358533   0.814234   x
            x  O                31         0.510959   0.949392   0.823283   x
            x  O                32         0.845829   0.188834   0.896080   x
            x  O                33         0.221044   0.202820   0.904161   x
            x  O                34         0.047970   0.880954   0.907508   x
            x  O                35         0.522941   0.402436   0.977845   x
            x  O                36         0.538395   0.992815   0.980862   x
            x  Na                1         0.823089   0.848505   0.089792   x
            x  Na                2         0.371397   0.106277   0.238489   x
            x  Na                3         0.628612   0.606289   0.261520   x
            x  Na                4         0.176925   0.348498   0.410207   x
            x  Na                5         0.676919   0.151519   0.589793   x
            x  Na                6         0.128614   0.893722   0.738482   x
            x  Na                7         0.871396   0.393735   0.761507   x
            x  Na                8         0.323092   0.651507   0.910210   x
            x  S                 1         0.534784   0.413991   0.067755   x
            x  S                 2         0.856819   0.102467   0.249854   x
            x  S                 3         0.143182   0.602463   0.250180   x
            x  S                 4         0.465215   0.914000   0.432251   x
            x  S                 5         0.965216   0.586000   0.567742   x
            x  S                 6         0.643180   0.897541   0.749816   x
            x  S                 7         0.356809   0.397529   0.750163   x
            x  S                 8         0.034785   0.085999   0.932249   x
            x  V                 1         0.032481   0.350985   0.089643   x
            x  V                 2         0.967516   0.850926   0.410344   x
            x  V                 3         0.467508   0.649004   0.589623   x
            x  V                 4         0.532485   0.149001   0.910371   x
            xxxxxxxxxxxxxxxxxxxxxxxxxxxxxxxxxxxxxxxxxxxxxxxxxxxxxxxxxxxxxxxxx
 
 
------------------------------------------------------------------------ <-- SCF
SCF loop      Energy           Fermi           Energy gain       Timer   <-- SCF
                               energy          per atom          (sec)   <-- SCF
------------------------------------------------------------------------ <-- SCF
Initial  -3.64037993E+004  0.00000000E+000                      5193.42  <-- SCF
      1  -3.64042605E+004  2.52585632E+000   8.23671671E-003    5321.66  <-- SCF
      2  -3.64042607E+004  2.52585592E+000   3.01695153E-006    5431.70  <-- SCF
      3  -3.64050549E+004  2.54404259E+000   1.41825263E-002    5566.01  <-- SCF
      4  -3.64035917E+004  2.57856611E+000  -2.61285979E-002    5701.36  <-- SCF
      5  -3.64041475E+004  2.57104666E+000   9.92431758E-003    5833.83  <-- SCF
      6  -3.64042459E+004  2.55386155E+000   1.75772714E-003    5970.42  <-- SCF
      7  -3.64042467E+004  2.56273767E+000   1.47907962E-005    6078.45  <-- SCF
      8  -3.64042449E+004  2.56293535E+000  -3.33815953E-005    6177.04  <-- SCF
      9  -3.64042451E+004  2.56249814E+000   4.31878954E-006    6270.40  <-- SCF
     10  -3.64042461E+004  2.56415998E+000   1.84733221E-005    6361.42  <-- SCF
     11  -3.64042461E+004  2.56461050E+000  -8.90931198E-007    6450.00  <-- SCF
     12  -3.64042462E+004  2.56492195E+000   1.94797319E-006    6536.69  <-- SCF
------------------------------------------------------------------------ <-- SCF
 
Final energy, E             =  -36403.82195634     eV
Final free energy (E-TS)    =  -36404.24620282     eV
(energies not corrected for finite basis set)
 
NB est. 0K energy (E-0.5TS)      =  -36404.03407958     eV
 
 
 ******************************** Constrained Forces ********************************
 *                                                                                  *
 *                           Cartesian components (eV/A)                            *
 * -------------------------------------------------------------------------------- *
 *                         x                    y                    z              *
 *                                                                                  *
 * O               1      0.03266              0.03653             -0.03222         *
 * O               2      0.00607              0.01969             -0.00456         *
 * O               3     -0.00331              0.02003             -0.04654         *
 * O               4     -0.00452              0.01809              0.00654         *
 * O               5      0.01973              0.00863             -0.00101         *
 * O               6      0.01394             -0.03321              0.00562         *
 * O               7      0.01518              0.01354              0.02511         *
 * O               8      0.00006              0.01779             -0.02210         *
 * O               9      0.01292             -0.02686             -0.02085         *
 * O              10     -0.01058             -0.03381              0.02152         *
 * O              11      0.00061              0.01239              0.03296         *
 * O              12     -0.01656              0.01144             -0.01811         *
 * O              13     -0.01322             -0.03728              0.00027         *
 * O              14     -0.03439              0.01496              0.00664         *
 * O              15      0.01528              0.02239             -0.00474         *
 * O              16      0.00230              0.03946              0.03637         *
 * O              17     -0.00629              0.02214              0.00565         *
 * O              18     -0.03151             -0.00137             -0.00735         *
 * O              19     -0.03258             -0.02134             -0.01849         *
 * O              20     -0.00609             -0.02449             -0.00952         *
 * O              21      0.00231             -0.04172             -0.03860         *
 * O              22      0.01015             -0.02330             -0.00095         *
 * O              23     -0.02268             -0.01295             -0.00833         *
 * O              24     -0.01058              0.03687              0.00020         *
 * O              25     -0.01357             -0.01113              0.02207         *
 * O              26      0.00106             -0.01238             -0.03184         *
 * O              27     -0.01334              0.03099             -0.02030         *
 * O              28      0.01194              0.02815              0.02184         *
 * O              29      0.00238             -0.02258              0.02327         *
 * O              30      0.01715             -0.01419             -0.02161         *
 * O              31      0.01286              0.03369             -0.00269         *
 * O              32      0.01979             -0.01086              0.00329         *
 * O              33     -0.00309             -0.01911             -0.00469         *
 * O              34     -0.00356             -0.02672              0.04609         *
 * O              35      0.00611             -0.02127              0.00461         *
 * O              36      0.03254             -0.03933              0.03517         *
 * Na              1     -0.04035              0.00005             -0.05594         *
 * Na              2      0.00352              0.01243             -0.02567         *
 * Na              3     -0.00358              0.01266              0.02566         *
 * Na              4      0.04030             -0.00061              0.05670         *
 * Na              5      0.04084             -0.00006             -0.05618         *
 * Na              6     -0.00364             -0.01295             -0.02591         *
 * Na              7      0.00377             -0.01266              0.02566         *
 * Na              8     -0.04054             -0.00029              0.05546         *
 * S               1     -0.00061             -0.05963             -0.01345         *
 * S               2     -0.01878             -0.02135             -0.00461         *
 * S               3      0.01393             -0.02492             -0.01344         *
 * S               4      0.00621             -0.08425              0.01856         *
 * S               5     -0.00001              0.08251             -0.01194         *
 * S               6      0.01269              0.02325              0.00960         *
 * S               7     -0.02061              0.02974             -0.00599         *
 * S               8     -0.00198              0.06896              0.01071         *
 * V               1      0.00810             -0.05871              0.07812         *
 * V               2     -0.00909             -0.01496             -0.03140         *
 * V               3     -0.00761              0.04529              0.06727         *
 * V               4      0.00828              0.06260             -0.08600         *
 *                                                                                  *
 ************************************************************************************
 
 ***************** Stress Tensor *****************
 *                                               *
 *          Cartesian components (GPa)           *
 * --------------------------------------------- *
 *             x             y             z     *
 *                                               *
 *  x      0.029198     -0.004308     -0.002347  *
 *  y     -0.004308     -0.134018      0.046287  *
 *  z     -0.002347      0.046287     -0.068601  *
 *                                               *
 *  Pressure:    0.0578                          *
 *                                               *
 *************************************************
  
 +------------+-------------+-------------+-----------------+ <-- min BFGS
 |    Step    |   lambda    |   F.delta'  |    enthalpy     | <-- min BFGS
 +------------+-------------+-------------+-----------------+ <-- min BFGS
 |  previous  |    0.000000 |    0.094453 |   -36404.244433 | <-- min BFGS
 | trial step |    1.000000 |    0.079801 |   -36404.244787 | <-- min BFGS
 |  line step |    6.446417 |    0.046413 |   -36404.246203 | <-- min BFGS
 +------------+-------------+-------------+-----------------+ <-- min BFGS
  

--------------------------------------------------------------------------------
 BFGS: improving iteration         1 with quad minimization (lambda= 14.017341)
--------------------------------------------------------------------------------
 
+---------------- MEMORY AND SCRATCH DISK ESTIMATES PER PROCESS --------------+
|                                                     Memory          Disk    |
| Model and support data                             3069.5 MB         0.0 MB |
| Electronic energy minimisation requirements        1350.1 MB         0.0 MB |
| Geometry minimisation requirements                 1777.7 MB         0.0 MB |
|                                               ----------------------------- |
| Approx. total storage required per process         6197.3 MB         0.0 MB |
|                                                                             |
| Requirements will fluctuate during execution and may exceed these estimates |
+-----------------------------------------------------------------------------+
 
 
                           -------------------------------
                                      Unit Cell
                           -------------------------------
        Real Lattice(A)              Reciprocal Lattice(1/A)
   6.3885653  -0.0003311  -0.0001327        0.9835049   0.0000518   0.0000300
  -0.0003645   6.9179261   0.0023877        0.0000471   0.9082470  -0.0001366
  -0.0005175   0.0025541  16.9882556        0.0000077  -0.0001277   0.3698547
 
                       Lattice parameters(A)       Cell Angles
                    a =    6.388565          alpha =   89.971610
                    b =    6.917927          beta  =   90.002936
                    c =   16.988256          gamma =   90.005989
 
                Current cell volume =  750.806495 A**3
 
                           -------------------------------
                                     Cell Contents
                           -------------------------------
 
            xxxxxxxxxxxxxxxxxxxxxxxxxxxxxxxxxxxxxxxxxxxxxxxxxxxxxxxxxxxxxxxxx
            x  Element         Atom        Fractional coordinates of atoms  x
            x                 Number           u          v          w      x
            x---------------------------------------------------------------x
            x  O                 1         0.038565   0.506995   0.019234   x
            x  O                 2         0.022968   0.097748   0.022180   x
            x  O                 3         0.547940   0.618932   0.092415   x
            x  O                 4         0.721072   0.297205   0.095884   x
            x  O                 5         0.345872   0.311164   0.103956   x
            x  O                 6         0.010966   0.550441   0.176744   x
            x  O                 7         0.019499   0.141517   0.185862   x
            x  O                 8         0.723480   0.934683   0.223668   x
            x  O                 9         0.275791   0.773284   0.232264   x
            x  O                10         0.724224   0.273274   0.267774   x
            x  O                11         0.276535   0.434670   0.276349   x
            x  O                12         0.980472   0.641522   0.314150   x
            x  O                13         0.989103   0.050480   0.323283   x
            x  O                14         0.654143   0.811128   0.396051   x
            x  O                15         0.278903   0.797164   0.404141   x
            x  O                16         0.452069   0.118905   0.407612   x
            x  O                17         0.977031   0.597724   0.477806   x
            x  O                18         0.961432   0.007066   0.480807   x
            x  O                19         0.461420   0.492969   0.519197   x
            x  O                20         0.477045   0.902278   0.522188   x
            x  O                21         0.952061   0.381109   0.592383   x
            x  O                22         0.778936   0.702789   0.595885   x
            x  O                23         0.154094   0.688843   0.603955   x
            x  O                24         0.488981   0.449535   0.676705   x
            x  O                25         0.480462   0.858460   0.685828   x
            x  O                26         0.776534   0.065352   0.723647   x
            x  O                27         0.224211   0.226733   0.732237   x
            x  O                28         0.775792   0.726732   0.767730   x
            x  O                29         0.223479   0.565343   0.776338   x
            x  O                30         0.519513   0.358496   0.814143   x
            x  O                31         0.510976   0.949576   0.823256   x
            x  O                32         0.845869   0.188849   0.896043   x
            x  O                33         0.221078   0.202810   0.904113   x
            x  O                34         0.047939   0.881099   0.907590   x
            x  O                35         0.522960   0.402269   0.977823   x
            x  O                36         0.538567   0.993006   0.980773   x
            x  Na                1         0.822871   0.848501   0.089687   x
            x  Na                2         0.371399   0.106350   0.238448   x
            x  Na                3         0.628608   0.606362   0.261561   x
            x  Na                4         0.177147   0.348494   0.410312   x
            x  Na                5         0.677135   0.151534   0.589689   x
            x  Na                6         0.128610   0.893655   0.738441   x
            x  Na                7         0.871397   0.393669   0.761548   x
            x  Na                8         0.322874   0.651519   0.910316   x
            x  S                 1         0.534828   0.414040   0.067733   x
            x  S                 2         0.856789   0.102437   0.249850   x
            x  S                 3         0.143216   0.602435   0.250187   x
            x  S                 4         0.465169   0.914058   0.432263   x
            x  S                 5         0.965172   0.585935   0.567723   x
            x  S                 6         0.643208   0.897569   0.749810   x
            x  S                 7         0.356775   0.397551   0.750180   x
            x  S                 8         0.034829   0.085935   0.932273   x
            x  V                 1         0.032524   0.351029   0.089629   x
            x  V                 2         0.967476   0.850883   0.410326   x
            x  V                 3         0.467462   0.648961   0.589616   x
            x  V                 4         0.532529   0.148940   0.910385   x
            xxxxxxxxxxxxxxxxxxxxxxxxxxxxxxxxxxxxxxxxxxxxxxxxxxxxxxxxxxxxxxxxx
 
 
------------------------------------------------------------------------ <-- SCF
SCF loop      Energy           Fermi           Energy gain       Timer   <-- SCF
                               energy          per atom          (sec)   <-- SCF
------------------------------------------------------------------------ <-- SCF
Initial  -3.64037788E+004  0.00000000E+000                      6986.69  <-- SCF
      1  -3.64042898E+004  2.51367663E+000   9.12463539E-003    7118.32  <-- SCF
      2  -3.64042901E+004  2.51367543E+000   6.11185135E-006    7236.22  <-- SCF
      3  -3.64064612E+004  2.49026085E+000   3.87691475E-002    7370.70  <-- SCF
      4  -3.64036404E+004  2.56923374E+000  -5.03712060E-002    7505.83  <-- SCF
      5  -3.64041313E+004  2.56382735E+000   8.76537865E-003    7639.63  <-- SCF
      6  -3.64041959E+004  2.55898282E+000   1.15468376E-003    7772.84  <-- SCF
      7  -3.64042428E+004  2.55882068E+000   8.37683885E-004    7899.55  <-- SCF
      8  -3.64042413E+004  2.56239063E+000  -2.79255390E-005    8023.74  <-- SCF
      9  -3.64042459E+004  2.56093089E+000   8.25403689E-005    8135.77  <-- SCF
     10  -3.64042471E+004  2.56658657E+000   2.11901506E-005    8232.81  <-- SCF
     11  -3.64042470E+004  2.56596555E+000  -1.66101162E-006    8326.05  <-- SCF
     12  -3.64042469E+004  2.56690148E+000  -7.63965965E-007    8418.78  <-- SCF
------------------------------------------------------------------------ <-- SCF
 
Final energy, E             =  -36403.82272377     eV
Final free energy (E-TS)    =  -36404.24693916     eV
(energies not corrected for finite basis set)
 
NB est. 0K energy (E-0.5TS)      =  -36404.03483146     eV
 
 
 ******************************** Constrained Forces ********************************
 *                                                                                  *
 *                           Cartesian components (eV/A)                            *
 * -------------------------------------------------------------------------------- *
 *                         x                    y                    z              *
 *                                                                                  *
 * O               1      0.03535              0.11599             -0.12220         *
 * O               2      0.00611              0.00214             -0.02339         *
 * O               3      0.00124              0.07653             -0.04506         *
 * O               4     -0.01706              0.02983             -0.00688         *
 * O               5      0.03482              0.01741             -0.01398         *
 * O               6      0.01684             -0.03137             -0.00763         *
 * O               7      0.02491              0.02089             -0.00447         *
 * O               8      0.00444              0.02630             -0.02787         *
 * O               9      0.01792             -0.01988             -0.03061         *
 * O              10     -0.01002             -0.03723              0.01359         *
 * O              11     -0.00500              0.02141              0.02658         *
 * O              12     -0.01951              0.01575             -0.00671         *
 * O              13     -0.02220             -0.04170             -0.00152         *
[...]
 * S               3      0.01500              0.00015             -0.02235         *
 * S               4     -0.00347              0.02293              0.00111         *
 * S               5      0.00459             -0.02894              0.01909         *
 * S               6      0.01299             -0.00826              0.01665         *
 * S               7     -0.00569             -0.00040             -0.00496         *
 * S               8     -0.01626             -0.02031             -0.01054         *
 * V               1     -0.00679              0.00616             -0.02189         *
 * V               2      0.00561              0.02296              0.03649         *
 * V               3     -0.00391              0.01216              0.00325         *
 * V               4      0.01199             -0.00800              0.02481         *
 *                                                                                  *
 ************************************************************************************
 
 ***************** Stress Tensor *****************
 *                                               *
 *          Cartesian components (GPa)           *
 * --------------------------------------------- *
 *             x             y             z     *
 *                                               *
 *  x     -0.014142     -0.006878     -0.016795  *
 *  y     -0.006878      0.010607      0.079339  *
 *  z     -0.016795      0.079339     -0.007214  *
 *                                               *
 *  Pressure:    0.0036                          *
 *                                               *
 *************************************************
 
 Pseudo atomic calculation performed for O 2s2 2p4
 
 Converged in 12 iterations to a total energy of -431.3437 eV
 
 
 Pseudo atomic calculation performed for Na 2s2 2p6 3s1
 
 Converged in 19 iterations to a total energy of -1293.0763 eV
 
 
 Pseudo atomic calculation performed for S 3s2 3p4
 
 Converged in 19 iterations to a total energy of -299.4518 eV
 
 
 Pseudo atomic calculation performed for V 3s2 3p6 3d3 4s2
 
 Converged in 33 iterations to a total energy of -1945.7424 eV
 
Charge spilling parameter for spin component 1 = 1.00%
 
     Atomic Populations (Mulliken)
     -----------------------------
Species          Ion     s      p      d      f     Total  Charge (e)
=====================================================================
  O               1     1.89   4.59   0.00   0.00   6.49    -0.49
  O               2     1.87   4.97   0.00   0.00   6.83    -0.83
  O               3     1.90   4.96   0.00   0.00   6.85    -0.85
  O               4     1.85   4.96   0.00   0.00   6.81    -0.81
  O               5     1.86   4.96   0.00   0.00   6.82    -0.82
  O               6     1.85   4.97   0.00   0.00   6.82    -0.82
  O               7     1.87   5.01   0.00   0.00   6.88    -0.88
  O               8     1.89   5.01   0.00   0.00   6.90    -0.90
  O               9     1.89   4.97   0.00   0.00   6.86    -0.86
  O              10     1.89   4.97   0.00   0.00   6.86    -0.86
  O              11     1.89   5.01   0.00   0.00   6.90    -0.90
  O              12     1.87   5.01   0.00   0.00   6.88    -0.88
  O              13     1.85   4.97   0.00   0.00   6.82    -0.82
  O              14     1.86   4.96   0.00   0.00   6.82    -0.82
  O              15     1.85   4.96   0.00   0.00   6.81    -0.81
  O              16     1.90   4.96   0.00   0.00   6.85    -0.85
  O              17     1.87   4.97   0.00   0.00   6.83    -0.83
  O              18     1.89   4.59   0.00   0.00   6.48    -0.48
  O              19     1.89   4.59   0.00   0.00   6.48    -0.48
  O              20     1.87   4.97   0.00   0.00   6.83    -0.83
  O              21     1.90   4.96   0.00   0.00   6.85    -0.85
  O              22     1.85   4.96   0.00   0.00   6.81    -0.81
  O              23     1.86   4.96   0.00   0.00   6.82    -0.82
  O              24     1.85   4.97   0.00   0.00   6.82    -0.82
  O              25     1.87   5.01   0.00   0.00   6.88    -0.88
  O              26     1.89   5.01   0.00   0.00   6.90    -0.90
  O              27     1.89   4.97   0.00   0.00   6.86    -0.86
  O              28     1.89   4.97   0.00   0.00   6.86    -0.86
  O              29     1.89   5.01   0.00   0.00   6.90    -0.90
  O              30     1.87   5.01   0.00   0.00   6.88    -0.88
  O              31     1.85   4.97   0.00   0.00   6.82    -0.82
  O              32     1.86   4.96   0.00   0.00   6.82    -0.82
  O              33     1.85   4.96   0.00   0.00   6.81    -0.81
  O              34     1.90   4.96   0.00   0.00   6.85    -0.85
  O              35     1.87   4.97   0.00   0.00   6.83    -0.83
  O              36     1.89   4.59   0.00   0.00   6.48    -0.48
  Na              1     2.08   6.01   0.00   0.00   8.09     0.91
  Na              2     2.08   5.99   0.00   0.00   8.07     0.93
  Na              3     2.08   5.99   0.00   0.00   8.07     0.93
  Na              4     2.08   6.01   0.00   0.00   8.09     0.91
  Na              5     2.08   6.01   0.00   0.00   8.09     0.91
  Na              6     2.08   5.99   0.00   0.00   8.07     0.93
  Na              7     2.08   5.99   0.00   0.00   8.07     0.93
  Na              8     2.08   6.01   0.00   0.00   8.09     0.91
  S               1     1.20   2.61   0.00   0.00   3.82     2.18
  S               2     1.22   2.62   0.00   0.00   3.84     2.16
  S               3     1.22   2.62   0.00   0.00   3.84     2.16
  S               4     1.20   2.61   0.00   0.00   3.82     2.18
  S               5     1.21   2.61   0.00   0.00   3.82     2.18
  S               6     1.22   2.62   0.00   0.00   3.84     2.16
  S               7     1.22   2.62   0.00   0.00   3.84     2.16
  S               8     1.21   2.61   0.00   0.00   3.82     2.18
  V               1     2.23   6.35   3.32   0.00  11.90     1.10
  V               2     2.23   6.35   3.35   0.00  11.93     1.07
  V               3     2.23   6.35   3.31   0.00  11.89     1.11
  V               4     2.23   6.35   3.31   0.00  11.89     1.11
=====================================================================
 
                 Bond                   Population      Length (A)
======================================================================
              O 16 -- S 4                    0.66        1.48181
              O 3  -- S 1                    0.66        1.48211
              O 21 -- S 5                    0.66        1.48213
              O 34 -- S 8                    0.66        1.48242
              O 10 -- S 2                    0.65        1.48726
              O 27 -- S 7                    0.65        1.48749
              O 9  -- S 3                    0.65        1.48769
              O 28 -- S 6                    0.65        1.48806
              O 8  -- S 2                    0.61        1.50753
              O 29 -- S 7                    0.60        1.50758
              O 11 -- S 3                    0.60        1.50797
              O 26 -- S 6                    0.60        1.50832
              O 15 -- S 4                    0.57        1.51148
              O 4  -- S 1                    0.57        1.51168
              O 22 -- S 5                    0.57        1.51209
              O 33 -- S 8                    0.57        1.51230
              O 7  -- S 2                    0.56        1.52733
              O 12 -- S 3                    0.56        1.52781
              O 30 -- S 7                    0.56        1.52798
              O 25 -- S 6                    0.56        1.52859
              O 20 -- S 4                    0.54        1.52925
              O 35 -- S 1                    0.54        1.52929
              O 17 -- S 5                    0.54        1.52960
              O 2  -- S 8                    0.54        1.52968
              O 14 -- S 4                    0.55        1.53102
              O 5  -- S 1                    0.55        1.53117
              O 23 -- S 5                    0.55        1.53125
              O 32 -- S 8                    0.55        1.53136
              O 13 -- S 2                    0.51        1.54694
              O 6  -- S 3                    0.51        1.54731
              O 24 -- S 7                    0.51        1.54780
              O 31 -- S 6                    0.51        1.54801
              O 19 -- V 3                    0.78        1.61803
              O 18 -- V 2                    0.78        1.61809
              O 1  -- V 1                    0.78        1.61817
              O 36 -- V 4                    0.78        1.61858
              O 13 -- V 2                    0.34        1.99881
              O 24 -- V 3                    0.34        1.99964
              O 6  -- V 1                    0.34        2.00028
              O 31 -- V 4                    0.34        2.00103
              O 33 -- V 4                    0.33        2.02100
              O 4  -- V 1                    0.33        2.02140
              O 22 -- V 3                    0.33        2.02163
              O 15 -- V 2                    0.33        2.02191
              O 5  -- V 1                    0.34        2.03606
              O 14 -- V 2                    0.33        2.03666
              O 32 -- V 4                    0.34        2.03747
              O 23 -- V 3                    0.34        2.03793
              O 17 -- V 2                    0.28        2.07996
              O 20 -- V 3                    0.28        2.08145
              O 2  -- V 1                    0.28        2.08364
              O 35 -- V 4                    0.28        2.08502
              O 7  -- V 1                    0.25        2.18015
              O 30 -- V 4                    0.25        2.18084
              O 12 -- V 2                    0.25        2.18148
              O 25 -- V 3                    0.25        2.18203
              O 16 -- Na 4                   0.16        2.34145
              O 21 -- Na 5                   0.15        2.34188
              O 34 -- Na 8                   0.16        2.34190
              O 3  -- Na 1                   0.16        2.34208
              O 22 -- O 23                  -0.16        2.39535
              O 14 -- O 15                  -0.16        2.39572
              O 32 -- O 33                  -0.16        2.39588
              O 12 -- Na 3                   0.08        2.39609
              O 4  -- O 5                   -0.16        2.39671
              O 25 -- Na 6                   0.08        2.39714
              O 7  -- Na 2                   0.08        2.39841
              O 30 -- Na 7                   0.08        2.39936
              O 7  -- O 13                  -0.16        2.41201
              O 6  -- O 12                  -0.16        2.41261
              O 24 -- O 30                  -0.16        2.41385
              O 25 -- O 31                  -0.16        2.41507
              O 11 -- Na 4                   0.09        2.43433
              O 26 -- Na 5                   0.09        2.43657
              O 8  -- Na 1                   0.09        2.43885
              O 29 -- Na 8                   0.09        2.44092
              O 16 -- O 20                  -0.15        2.44514
              O 17 -- O 21                  -0.16        2.44539
              O 3  -- O 35                  -0.15        2.44673
              O 2  -- O 34                  -0.16        2.44722
              O 10 -- Na 3                   0.14        2.45699
              O 9  -- Na 2                   0.14        2.45788
              O 28 -- Na 7                   0.14        2.45903
              O 27 -- O 29                  -0.16        2.45945
              O 8  -- O 10                  -0.16        2.45978
              O 26 -- O 28                  -0.16        2.46000
              O 27 -- Na 6                   0.14        2.46018
              O 9  -- O 11                  -0.16        2.46029
              O 35 -- Na 8                   0.06        2.46174
              O 2  -- Na 1                   0.06        2.46205
              O 7  -- O 8                   -0.15        2.46235
              O 17 -- Na 4                   0.05        2.46239
              O 29 -- O 30                  -0.15        2.46253
              O 20 -- Na 5                   0.05        2.46362
              O 11 -- O 12                  -0.15        2.46405
              O 25 -- O 26                  -0.15        2.46464
              O 6  -- O 9                   -0.15        2.47709
              O 10 -- O 13                  -0.15        2.47724
              O 28 -- O 31                  -0.14        2.47826
              O 24 -- O 27                  -0.15        2.47840
              O 4  -- O 35                  -0.14        2.48167
              O 15 -- O 20                  -0.14        2.48251
              O 2  -- O 33                  -0.14        2.48368
              O 17 -- O 22                  -0.14        2.48434
              O 15 -- O 16                  -0.14        2.49018
              O 3  -- O 4                   -0.14        2.49073
              O 21 -- O 22                  -0.14        2.49137
              O 33 -- O 34                  -0.14        2.49224
              O 14 -- O 16                  -0.14        2.49838
              O 3  -- O 5                   -0.14        2.49854
              O 32 -- O 34                  -0.14        2.49861
              O 19 -- Na 4                   0.05        2.49862
              O 21 -- O 23                  -0.14        2.49863
              O 36 -- Na 1                   0.05        2.49887
              O 1  -- Na 8                   0.05        2.49965
              O 18 -- Na 5                   0.05        2.49969
              O 5  -- O 35                  -0.13        2.50941
              O 2  -- O 32                  -0.13        2.50969
              O 14 -- O 20                  -0.13        2.51022
              O 17 -- O 23                  -0.13        2.51072
              O 7  -- O 10                  -0.13        2.51927
              O 27 -- O 30                  -0.13        2.51996
              O 9  -- O 12                  -0.13        2.52042
              O 25 -- O 28                  -0.13        2.52084
              O 29 -- Na 6                   0.09        2.52480
              O 8  -- Na 3                   0.09        2.52514
              O 26 -- Na 7                   0.09        2.52546
              O 11 -- Na 2                   0.09        2.52602
              O 8  -- O 13                  -0.13        2.52653
              O 6  -- O 11                  -0.13        2.52694
              O 24 -- O 29                  -0.13        2.52749
              O 26 -- O 31                  -0.13        2.52826
              O 28 -- Na 6                   0.08        2.55568
              O 10 -- Na 2                   0.08        2.55604
              O 9  -- Na 3                   0.08        2.55627
              O 27 -- Na 7                   0.08        2.55735
              O 8  -- Na 2                   0.04        2.57829
              O 29 -- Na 7                   0.04        2.57906
              O 26 -- Na 6                   0.04        2.57936
              O 11 -- Na 3                   0.04        2.58096
              O 23 -- Na 6                   0.03        2.67254
              O 14 -- Na 3                   0.03        2.67303
              O 5  -- Na 2                   0.03        2.67383
              O 15 -- O 17                  -0.04        2.67427
              O 20 -- O 22                  -0.04        2.67561
              O 2  -- O 4                   -0.04        2.67623
              O 32 -- Na 7                   0.03        2.67680
              O 33 -- O 35                  -0.04        2.67727
              O 4  -- O 7                   -0.03        2.68029
              O 12 -- O 15                  -0.03        2.68177
              O 30 -- O 33                  -0.03        2.68195
              O 22 -- O 25                  -0.03        2.68327
              O 1  -- O 6                   -0.02        2.72297
              O 13 -- O 18                  -0.02        2.72333
              O 19 -- O 24                  -0.02        2.72383
              O 31 -- O 36                  -0.02        2.72400
              O 1  -- O 5                   -0.01        2.75766
              O 32 -- O 36                  -0.01        2.75830
              O 14 -- O 18                  -0.01        2.75843
              O 19 -- O 23                  -0.01        2.75926
              O 12 -- O 17                  -0.03        2.76733
              O 20 -- O 25                  -0.03        2.77041
              O 2  -- O 7                   -0.03        2.77290
              O 23 -- O 25                  -0.02        2.77501
              O 30 -- O 35                  -0.03        2.77603
              O 12 -- O 14                  -0.02        2.77635
              O 30 -- O 32                  -0.02        2.77693
              O 5  -- O 7                   -0.02        2.77732
              O 24 -- O 25                  -0.03        2.79219
              O 30 -- O 31                  -0.03        2.79227
              O 6  -- O 7                   -0.03        2.79248
              O 12 -- O 13                  -0.03        2.79444
              O 17 -- O 18                  -0.01        2.81099
              O 19 -- O 20                  -0.01        2.81364
              O 1  -- O 2                   -0.01        2.81403
              O 35 -- O 36                  -0.01        2.81508
              O 1  -- O 4                   -0.01        2.82155
              O 33 -- O 36                  -0.01        2.82259
              O 15 -- O 18                  -0.01        2.82267
              O 19 -- O 22                  -0.01        2.82374
              O 13 -- O 15                  -0.02        2.84051
              O 22 -- O 24                  -0.02        2.84060
              O 4  -- O 6                   -0.02        2.84220
              O 31 -- O 33                  -0.02        2.84289
              O 24 -- Na 7                   0.02        2.87325
              O 6  -- Na 3                   0.02        2.87533
              O 13 -- Na 2                   0.02        2.87671
              O 31 -- Na 6                   0.02        2.87716
              O 14 -- O 17                  -0.02        2.88971
              O 20 -- O 23                  -0.02        2.89037
              O 2  -- O 5                   -0.02        2.89165
              O 32 -- O 35                  -0.02        2.89266
              O 4  -- O 10                  -0.02        2.92056
              O 9  -- O 15                  -0.02        2.92096
              O 22 -- O 28                  -0.02        2.92455
              O 27 -- O 33                  -0.02        2.92642
              O 13 -- O 14                  -0.01        2.96928
              O 5  -- O 6                   -0.01        2.97030
              O 23 -- O 24                  -0.01        2.97103
              O 31 -- O 32                  -0.01        2.97198
======================================================================
 

Writing analysis data to 108833.castep_bin

Writing model to 108833.check
 
 A BibTeX formatted list of references used in this run has been written to 
 108833.bib
 
Initialisation time =     20.42 s
Calculation time    =   3080.72 s
Finalisation time   =      5.93 s
Total time          =   3107.08 s
Peak Memory Use     = 5312736 kB
  
Overall parallel efficiency rating: Excellent (99%)                             
  
Data was distributed by:-
k-point (4-way); efficiency rating: Excellent (99%)                             
