Scanning /u/fs1/me388/shared/bin/pw6.x
Setting MPI to OpenMPI-1.10.3

     Program PWSCF v.6.0 (svn rev. 13079) starts on 21Sep2017 at 17: 3:16 

     This program is part of the open-source Quantum ESPRESSO suite
     for quantum simulation of materials; please cite
         "P. Giannozzi et al., J. Phys.:Condens. Matter 21 395502 (2009);
          URL http://www.quantum-espresso.org", 
     in publications or presentations arising from this work. More details at
     http://www.quantum-espresso.org/quote

     Parallel version (MPI), running on    20 processors
     R & G space division:  proc/nbgrp/npool/nimage =      20
     Reading input from NaP-GA-5oe5v6-1x32-vcr.in

     Current dimensions of program PWSCF are:
     Max number of different atomic species (ntypx) = 10
     Max number of k-points (npk) =  40000
     Max angular momentum in pseudopotentials (lmaxx) =  3
     WARNING: atomic wfc #  3 for atom type 1 has zero norm
     WARNING: atomic wfc #  4 for atom type 1 has zero norm
     WARNING: atomic wfc #  3 for atom type 2 has zero norm
     WARNING: atomic wfc #  4 for atom type 2 has zero norm

     Subspace diagonalization in iterative solution of the eigenvalue problem:
     a serial algorithm will be used

 
     Parallelization info
     --------------------
     sticks:   dense  smooth     PW     G-vecs:    dense   smooth      PW
     Min         189     189     51                14999    14999    2138
     Max         190     190     52                15003    15003    2143
     Sum        3785    3785   1035               300011   300011   42817
 


     bravais-lattice index     =            0
     lattice parameter (alat)  =      10.9911  a.u.
     unit-cell volume          =    2221.1088 (a.u.)^3
     number of atoms/cell      =           14
     number of atomic types    =            2
     number of electrons       =        42.00
     number of Kohn-Sham states=           25
     kinetic-energy cutoff     =     100.0000  Ry
     charge density cutoff     =     400.0000  Ry
     convergence threshold     =      1.0E-12
     mixing beta               =       0.7000
     number of iterations used =            8  plain     mixing
     Exchange-correlation      =  SLA  PW   PBX  PBC ( 1  4  3  4 0 0)
     nstep                     =          200


     celldm(1)=  10.991065  celldm(2)=   0.000000  celldm(3)=   0.000000
     celldm(4)=   0.000000  celldm(5)=   0.000000  celldm(6)=   0.000000

     crystal axes: (cart. coord. in units of alat)
               a(1) = (   1.000000   0.000000   0.000000 )  
               a(2) = (   0.100849   0.984699   0.000000 )  
               a(3) = (  -0.775274   0.081471   1.698818 )  

     reciprocal axes: (cart. coord. in units 2 pi/alat)
               b(1) = (  1.000000 -0.102416  0.461272 )  
               b(2) = (  0.000000  1.015538 -0.048702 )  
               b(3) = (  0.000000  0.000000  0.588645 )  


     PseudoPot. # 1 for Na read from file:
     ./pseudos/Na.pbe-tm-gipaw-dc.UPF
     MD5 check sum: 79ffc2a28163c3a31cc1c1d0cbcfd6e1
     Pseudo is Norm-conserving + core correction, Zval =  1.0
     Generated by new atomic code, or converted to UPF format
     Using radial grid of 1501 points,  1 beta functions with: 
                l(1) =   0

     PseudoPot. # 2 for P  read from file:
     ./pseudos/P.pbe-tm-new-gipaw-dc.UPF
     MD5 check sum: 0766c8803ca68d5280b565624db8eaed
     Pseudo is Norm-conserving, Zval =  5.0
     Generated by new atomic code, or converted to UPF format
     Using radial grid of 1533 points,  2 beta functions with: 
                l(1) =   0
                l(2) =   1

     atomic species   valence    mass     pseudopotential
        Na             1.00    22.98977     Na( 1.00)
        P              5.00    30.97376     P ( 1.00)

     No symmetry found



   Cartesian axes

     site n.     atom                  positions (alat units)
         1           Na  tau(   1) = (  -0.1700580   0.9300153   0.9021574  )
         2           Na  tau(   2) = (  -0.4320986   0.1785606   1.4165017  )
         3           Na  tau(   3) = (   0.2849322   0.6386580   0.0614700  )
         4           Na  tau(   4) = (   0.0385000   0.4314056   0.6184887  )
         5           Na  tau(   5) = (   0.0542605   0.3905293   1.6238713  )
         6           Na  tau(   6) = (   0.3454449   0.6279886   1.0823391  )
         7           Na  tau(   7) = (   0.7581192   0.9256652   0.2713743  )
         8           P   tau(   8) = (   0.1852303   0.1541234   0.2221493  )
         9           P   tau(   9) = (  -0.2177092   0.6653730   1.3402774  )
        10           P   tau(  10) = (  -0.1163540   0.3935698   1.0867068  )
        11           P   tau(  11) = (   0.2360645   0.9198513   0.5101449  )
        12           P   tau(  12) = (   0.0746144   0.8741615   1.4797929  )
        13           P   tau(  13) = (   0.1251120   0.1238628   1.2117126  )
        14           P   tau(  14) = (   0.4852824   0.6700378   0.5866664  )

     number of k points=    86  Marzari-Vanderbilt smearing, width (Ry)=  0.0040
                       cart. coord. in units 2pi/alat
        k(    1) = (   0.0000000   0.0000000   0.0000000), wk =   0.0119048
        k(    2) = (   0.0000000   0.0000000   0.1471611), wk =   0.0238095
        k(    3) = (   0.0000000   0.0000000  -0.2943223), wk =   0.0119048
        k(    4) = (   0.0000000   0.1692564  -0.0081171), wk =   0.0238095
        k(    5) = (   0.0000000   0.1692564   0.1390441), wk =   0.0238095
        k(    6) = (   0.0000000   0.1692564  -0.3024393), wk =   0.0238095
        k(    7) = (   0.0000000   0.1692564  -0.1552782), wk =   0.0238095
        k(    8) = (   0.0000000   0.3385128  -0.0162342), wk =   0.0238095
        k(    9) = (   0.0000000   0.3385128   0.1309270), wk =   0.0238095
        k(   10) = (   0.0000000   0.3385128  -0.3105564), wk =   0.0238095
        k(   11) = (   0.0000000   0.3385128  -0.1633953), wk =   0.0238095
        k(   12) = (   0.0000000  -0.5077692   0.0243512), wk =   0.0119048
        k(   13) = (   0.0000000  -0.5077692   0.1715124), wk =   0.0238095
        k(   14) = (   0.0000000  -0.5077692  -0.2699710), wk =   0.0119048
        k(   15) = (   0.1428571  -0.0146308   0.0658960), wk =   0.0238095
        k(   16) = (   0.1428571  -0.0146308   0.2130572), wk =   0.0238095
        k(   17) = (   0.1428571  -0.0146308  -0.2284262), wk =   0.0238095
        k(   18) = (   0.1428571  -0.0146308  -0.0812651), wk =   0.0238095
        k(   19) = (   0.1428571   0.1546256   0.0577790), wk =   0.0238095
        k(   20) = (   0.1428571   0.1546256   0.2049401), wk =   0.0238095
        k(   21) = (   0.1428571   0.1546256  -0.2365433), wk =   0.0238095
        k(   22) = (   0.1428571   0.1546256  -0.0893822), wk =   0.0238095
        k(   23) = (   0.1428571   0.3238820   0.0496619), wk =   0.0238095
        k(   24) = (   0.1428571   0.3238820   0.1968230), wk =   0.0238095
        k(   25) = (   0.1428571   0.3238820  -0.2446604), wk =   0.0238095
        k(   26) = (   0.1428571   0.3238820  -0.0974992), wk =   0.0238095
        k(   27) = (   0.1428571  -0.5224000   0.0902473), wk =   0.0238095
        k(   28) = (   0.1428571  -0.5224000   0.2374084), wk =   0.0238095
        k(   29) = (   0.1428571  -0.5224000  -0.2040750), wk =   0.0238095
        k(   30) = (   0.1428571  -0.5224000  -0.0569139), wk =   0.0238095
        k(   31) = (   0.1428571  -0.3531436   0.0821302), wk =   0.0238095
        k(   32) = (   0.1428571  -0.3531436   0.2292913), wk =   0.0238095
        k(   33) = (   0.1428571  -0.3531436  -0.2121921), wk =   0.0238095
        k(   34) = (   0.1428571  -0.3531436  -0.0650309), wk =   0.0238095
        k(   35) = (   0.1428571  -0.1838872   0.0740131), wk =   0.0238095
        k(   36) = (   0.1428571  -0.1838872   0.2211743), wk =   0.0238095
        k(   37) = (   0.1428571  -0.1838872  -0.2203091), wk =   0.0238095
        k(   38) = (   0.1428571  -0.1838872  -0.0731480), wk =   0.0238095
        k(   39) = (   0.2857143  -0.0292616   0.1317921), wk =   0.0238095
        k(   40) = (   0.2857143  -0.0292616   0.2789532), wk =   0.0238095
        k(   41) = (   0.2857143  -0.0292616  -0.1625302), wk =   0.0238095
        k(   42) = (   0.2857143  -0.0292616  -0.0153690), wk =   0.0238095
        k(   43) = (   0.2857143   0.1399948   0.1236750), wk =   0.0238095
        k(   44) = (   0.2857143   0.1399948   0.2708361), wk =   0.0238095
        k(   45) = (   0.2857143   0.1399948  -0.1706473), wk =   0.0238095
        k(   46) = (   0.2857143   0.1399948  -0.0234861), wk =   0.0238095
        k(   47) = (   0.2857143   0.3092512   0.1155579), wk =   0.0238095
        k(   48) = (   0.2857143   0.3092512   0.2627191), wk =   0.0238095
        k(   49) = (   0.2857143   0.3092512  -0.1787643), wk =   0.0238095
        k(   50) = (   0.2857143   0.3092512  -0.0316032), wk =   0.0238095
        k(   51) = (   0.2857143  -0.5370308   0.1561433), wk =   0.0238095
        k(   52) = (   0.2857143  -0.5370308   0.3033045), wk =   0.0238095
        k(   53) = (   0.2857143  -0.5370308  -0.1381790), wk =   0.0238095
        k(   54) = (   0.2857143  -0.5370308   0.0089822), wk =   0.0238095
        k(   55) = (   0.2857143  -0.3677744   0.1480262), wk =   0.0238095
        k(   56) = (   0.2857143  -0.3677744   0.2951874), wk =   0.0238095
        k(   57) = (   0.2857143  -0.3677744  -0.1462960), wk =   0.0238095
        k(   58) = (   0.2857143  -0.3677744   0.0008651), wk =   0.0238095
        k(   59) = (   0.2857143  -0.1985180   0.1399092), wk =   0.0238095
        k(   60) = (   0.2857143  -0.1985180   0.2870703), wk =   0.0238095
        k(   61) = (   0.2857143  -0.1985180  -0.1544131), wk =   0.0238095
        k(   62) = (   0.2857143  -0.1985180  -0.0072520), wk =   0.0238095
        k(   63) = (   0.4285714  -0.0438924   0.1976881), wk =   0.0238095
        k(   64) = (   0.4285714  -0.0438924   0.3448493), wk =   0.0238095
        k(   65) = (   0.4285714  -0.0438924  -0.0966341), wk =   0.0238095
        k(   66) = (   0.4285714  -0.0438924   0.0505270), wk =   0.0238095
        k(   67) = (   0.4285714   0.1253640   0.1895711), wk =   0.0238095
        k(   68) = (   0.4285714   0.1253640   0.3367322), wk =   0.0238095
        k(   69) = (   0.4285714   0.1253640  -0.1047512), wk =   0.0238095
        k(   70) = (   0.4285714   0.1253640   0.0424099), wk =   0.0238095
        k(   71) = (   0.4285714   0.2946204   0.1814540), wk =   0.0238095
        k(   72) = (   0.4285714   0.2946204   0.3286151), wk =   0.0238095
        k(   73) = (   0.4285714   0.2946204  -0.1128683), wk =   0.0238095
        k(   74) = (   0.4285714   0.2946204   0.0342928), wk =   0.0238095
        k(   75) = (   0.4285714  -0.5516617   0.2220394), wk =   0.0238095
        k(   76) = (   0.4285714  -0.5516617   0.3692005), wk =   0.0238095
        k(   77) = (   0.4285714  -0.5516617  -0.0722829), wk =   0.0238095
        k(   78) = (   0.4285714  -0.5516617   0.0748782), wk =   0.0238095
        k(   79) = (   0.4285714  -0.3824053   0.2139223), wk =   0.0238095
        k(   80) = (   0.4285714  -0.3824053   0.3610834), wk =   0.0238095
        k(   81) = (   0.4285714  -0.3824053  -0.0804000), wk =   0.0238095
        k(   82) = (   0.4285714  -0.3824053   0.0667611), wk =   0.0238095
        k(   83) = (   0.4285714  -0.2131489   0.2058052), wk =   0.0238095
        k(   84) = (   0.4285714  -0.2131489   0.3529663), wk =   0.0238095
        k(   85) = (   0.4285714  -0.2131489  -0.0885171), wk =   0.0238095
        k(   86) = (   0.4285714  -0.2131489   0.0586441), wk =   0.0238095

     Dense  grid:   300011 G-vectors     FFT dimensions: (  72,  72, 135)

     Estimated max dynamical RAM per process >      71.99Mb

     Estimated total allocated dynamical RAM >    1439.80Mb

     Initial potential from superposition of free atoms

     starting charge   35.33123, renormalised to   42.00000
     Starting wfc are   91 randomized atomic wfcs

     total cpu time spent up to now is       13.1 secs

     per-process dynamical memory:    92.7 Mb

     Self-consistent Calculation

     iteration #  1     ecut=   100.00 Ry     beta=0.70
     CG style diagonalization
     ethr =  1.00E-04,  avg # of iterations =  6.0

     total cpu time spent up to now is       38.2 secs

     total energy              =     -96.97759603 Ry
     Harris-Foulkes estimate   =     -97.97483924 Ry
     estimated scf accuracy    <       1.41058691 Ry

     iteration #  2     ecut=   100.00 Ry     beta=0.70
     CG style diagonalization
     ethr =  3.36E-03,  avg # of iterations =  4.6

     total cpu time spent up to now is       56.6 secs

     total energy              =     -96.98705288 Ry
     Harris-Foulkes estimate   =     -98.25647832 Ry
     estimated scf accuracy    <       2.90774888 Ry

     iteration #  3     ecut=   100.00 Ry     beta=0.70
     CG style diagonalization
     ethr =  3.36E-03,  avg # of iterations =  4.0

     total cpu time spent up to now is       72.5 secs

     total energy              =     -97.48594981 Ry
     Harris-Foulkes estimate   =     -97.69889309 Ry
     estimated scf accuracy    <       0.54327388 Ry

     iteration #  4     ecut=   100.00 Ry     beta=0.70
     CG style diagonalization
     ethr =  1.29E-03,  avg # of iterations =  3.1

     total cpu time spent up to now is       85.0 secs

     total energy              =     -97.54095475 Ry
     Harris-Foulkes estimate   =     -97.56673340 Ry
     estimated scf accuracy    <       0.07552920 Ry

     iteration #  5     ecut=   100.00 Ry     beta=0.70
     CG style diagonalization
     ethr =  1.80E-04,  avg # of iterations =  5.2

     total cpu time spent up to now is      105.9 secs

     total energy              =     -97.62186710 Ry
     Harris-Foulkes estimate   =     -97.63507087 Ry
     estimated scf accuracy    <       0.05536722 Ry

     iteration #  6     ecut=   100.00 Ry     beta=0.70
     CG style diagonalization
     ethr =  1.32E-04,  avg # of iterations =  3.1

     total cpu time spent up to now is      118.2 secs

     total energy              =     -97.61677677 Ry
     Harris-Foulkes estimate   =     -97.62538494 Ry
     estimated scf accuracy    <       0.02433964 Ry

     iteration #  7     ecut=   100.00 Ry     beta=0.70
     CG style diagonalization
     ethr =  5.80E-05,  avg # of iterations =  3.6

     total cpu time spent up to now is      132.9 secs

     total energy              =     -97.62266040 Ry
     Harris-Foulkes estimate   =     -97.62333464 Ry
     estimated scf accuracy    <       0.00178711 Ry

     iteration #  8     ecut=   100.00 Ry     beta=0.70
     CG style diagonalization
     c_bands:  1 eigenvalues not converged
     c_bands:  1 eigenvalues not converged
     c_bands:  1 eigenvalues not converged
     c_bands:  1 eigenvalues not converged
     c_bands:  1 eigenvalues not converged
     c_bands:  1 eigenvalues not converged
     c_bands:  1 eigenvalues not converged
     c_bands:  1 eigenvalues not converged
     c_bands:  1 eigenvalues not converged
     c_bands:  1 eigenvalues not converged
     c_bands:  1 eigenvalues not converged
     c_bands:  1 eigenvalues not converged
     ethr =  4.26E-06,  avg # of iterations =  6.0

     total cpu time spent up to now is      157.0 secs

     total energy              =     -97.62612738 Ry
     Harris-Foulkes estimate   =     -97.62708441 Ry
     estimated scf accuracy    <       0.00521661 Ry

     iteration #  9     ecut=   100.00 Ry     beta=0.70
     CG style diagonalization
     ethr =  4.26E-06,  avg # of iterations =  3.1

     total cpu time spent up to now is      169.7 secs

     total energy              =     -97.62543648 Ry
     Harris-Foulkes estimate   =     -97.62629583 Ry
     estimated scf accuracy    <       0.00278532 Ry

     iteration # 10     ecut=   100.00 Ry     beta=0.70
     CG style diagonalization
     ethr =  4.26E-06,  avg # of iterations =  3.4

     total cpu time spent up to now is      183.6 secs

     total energy              =     -97.62573112 Ry
     Harris-Foulkes estimate   =     -97.62580752 Ry
     estimated scf accuracy    <       0.00022012 Ry

     iteration # 11     ecut=   100.00 Ry     beta=0.70
     CG style diagonalization
     c_bands:  1 eigenvalues not converged
     ethr =  5.24E-07,  avg # of iterations =  5.1

     total cpu time spent up to now is      204.1 secs

     total energy              =     -97.62603341 Ry
     Harris-Foulkes estimate   =     -97.62609951 Ry
     estimated scf accuracy    <       0.00022093 Ry

     iteration # 12     ecut=   100.00 Ry     beta=0.70
     CG style diagonalization
     ethr =  5.24E-07,  avg # of iterations =  3.1

     total cpu time spent up to now is      216.7 secs

     total energy              =     -97.62600751 Ry
     Harris-Foulkes estimate   =     -97.62604824 Ry
     estimated scf accuracy    <       0.00006491 Ry

     iteration # 13     ecut=   100.00 Ry     beta=0.70
     CG style diagonalization
     ethr =  1.55E-07,  avg # of iterations =  4.9

     total cpu time spent up to now is      236.4 secs

     total energy              =     -97.62604829 Ry
     Harris-Foulkes estimate   =     -97.62610767 Ry
     estimated scf accuracy    <       0.00025097 Ry

     iteration # 14     ecut=   100.00 Ry     beta=0.70
     CG style diagonalization
     ethr =  1.55E-07,  avg # of iterations =  3.5

     total cpu time spent up to now is      250.3 secs

     total energy              =     -97.62603032 Ry
     Harris-Foulkes estimate   =     -97.62605936 Ry
     estimated scf accuracy    <       0.00007546 Ry

     iteration # 15     ecut=   100.00 Ry     beta=0.70
     CG style diagonalization
     ethr =  1.55E-07,  avg # of iterations =  3.8

     total cpu time spent up to now is      265.8 secs

     total energy              =     -97.62605298 Ry
     Harris-Foulkes estimate   =     -97.62605317 Ry
     estimated scf accuracy    <       0.00000385 Ry

     iteration # 16     ecut=   100.00 Ry     beta=0.70
     CG style diagonalization
     ethr =  9.16E-09,  avg # of iterations =  4.6

     total cpu time spent up to now is      283.9 secs

     total energy              =     -97.62605764 Ry
     Harris-Foulkes estimate   =     -97.62605705 Ry
     estimated scf accuracy    <       0.00000766 Ry

     iteration # 17     ecut=   100.00 Ry     beta=0.70
     CG style diagonalization
     ethr =  9.16E-09,  avg # of iterations =  3.0

     total cpu time spent up to now is      296.1 secs

     total energy              =     -97.62605564 Ry
     Harris-Foulkes estimate   =     -97.62605773 Ry
     estimated scf accuracy    <       0.00000920 Ry

     iteration # 18     ecut=   100.00 Ry     beta=0.70
     CG style diagonalization
     ethr =  9.16E-09,  avg # of iterations =  3.0

     total cpu time spent up to now is      308.3 secs

     total energy              =     -97.62605415 Ry
     Harris-Foulkes estimate   =     -97.62605583 Ry
     estimated scf accuracy    <       0.00000478 Ry

     iteration # 19     ecut=   100.00 Ry     beta=0.70
     CG style diagonalization
     ethr =  9.16E-09,  avg # of iterations =  3.8

     total cpu time spent up to now is      323.7 secs

     total energy              =     -97.62605520 Ry
     Harris-Foulkes estimate   =     -97.62605521 Ry
     estimated scf accuracy    <       0.00000004 Ry

     iteration # 20     ecut=   100.00 Ry     beta=0.70
     CG style diagonalization
     ethr =  8.79E-11,  avg # of iterations =  5.5

     total cpu time spent up to now is      345.4 secs

     total energy              =     -97.62605552 Ry
     Harris-Foulkes estimate   =     -97.62605549 Ry
     estimated scf accuracy    <       0.00000014 Ry

     iteration # 21     ecut=   100.00 Ry     beta=0.70
     CG style diagonalization
     ethr =  8.79E-11,  avg # of iterations =  3.2

     total cpu time spent up to now is      358.5 secs

     total energy              =     -97.62605546 Ry
     Harris-Foulkes estimate   =     -97.62605553 Ry
     estimated scf accuracy    <       0.00000025 Ry

     iteration # 22     ecut=   100.00 Ry     beta=0.70
     CG style diagonalization
     ethr =  8.79E-11,  avg # of iterations =  3.2

     total cpu time spent up to now is      371.6 secs

     total energy              =     -97.62605544 Ry
     Harris-Foulkes estimate   =     -97.62605547 Ry
     estimated scf accuracy    <       0.00000010 Ry

     iteration # 23     ecut=   100.00 Ry     beta=0.70
     CG style diagonalization
     ethr =  8.79E-11,  avg # of iterations =  4.4

     total cpu time spent up to now is      389.4 secs

     total energy              =     -97.62605546 Ry
     Harris-Foulkes estimate   =     -97.62605546 Ry
     estimated scf accuracy    <          9.1E-09 Ry

     iteration # 24     ecut=   100.00 Ry     beta=0.70
     CG style diagonalization
     ethr =  2.17E-11,  avg # of iterations =  3.4

     total cpu time spent up to now is      403.0 secs

     total energy              =     -97.62605546 Ry
     Harris-Foulkes estimate   =     -97.62605546 Ry
     estimated scf accuracy    <          9.9E-09 Ry

     iteration # 25     ecut=   100.00 Ry     beta=0.70
     CG style diagonalization
     ethr =  2.17E-11,  avg # of iterations =  4.8

     total cpu time spent up to now is      422.0 secs

     total energy              =     -97.62605546 Ry
     Harris-Foulkes estimate   =     -97.62605547 Ry
     estimated scf accuracy    <       0.00000003 Ry

     iteration # 26     ecut=   100.00 Ry     beta=0.70
     CG style diagonalization
     ethr =  2.17E-11,  avg # of iterations =  3.2

     total cpu time spent up to now is      434.8 secs

     total energy              =     -97.62605546 Ry
     Harris-Foulkes estimate   =     -97.62605546 Ry
     estimated scf accuracy    <       0.00000002 Ry

     iteration # 27     ecut=   100.00 Ry     beta=0.70
     CG style diagonalization
     ethr =  2.17E-11,  avg # of iterations =  3.7

     total cpu time spent up to now is      449.6 secs

     total energy              =     -97.62605546 Ry
     Harris-Foulkes estimate   =     -97.62605546 Ry
     estimated scf accuracy    <          9.7E-10 Ry

     iteration # 28     ecut=   100.00 Ry     beta=0.70
     CG style diagonalization
     ethr =  2.30E-12,  avg # of iterations =  4.6

     total cpu time spent up to now is      467.9 secs

     total energy              =     -97.62605546 Ry
     Harris-Foulkes estimate   =     -97.62605546 Ry
     estimated scf accuracy    <          4.7E-10 Ry

     iteration # 29     ecut=   100.00 Ry     beta=0.70
     CG style diagonalization
     ethr =  1.12E-12,  avg # of iterations =  3.3

     total cpu time spent up to now is      481.4 secs

     total energy              =     -97.62605546 Ry
     Harris-Foulkes estimate   =     -97.62605546 Ry
     estimated scf accuracy    <          3.3E-10 Ry

     iteration # 30     ecut=   100.00 Ry     beta=0.70
     CG style diagonalization
     ethr =  7.97E-13,  avg # of iterations =  3.2

     total cpu time spent up to now is      494.2 secs

     total energy              =     -97.62605546 Ry
     Harris-Foulkes estimate   =     -97.62605546 Ry
     estimated scf accuracy    <          8.8E-11 Ry

     iteration # 31     ecut=   100.00 Ry     beta=0.70
     CG style diagonalization
     ethr =  2.11E-13,  avg # of iterations =  4.5

     total cpu time spent up to now is      512.4 secs

     total energy              =     -97.62605546 Ry
     Harris-Foulkes estimate   =     -97.62605546 Ry
     estimated scf accuracy    <          5.7E-11 Ry

     iteration # 32     ecut=   100.00 Ry     beta=0.70
     CG style diagonalization
     ethr =  1.36E-13,  avg # of iterations =  3.0

     total cpu time spent up to now is      524.6 secs

     total energy              =     -97.62605546 Ry
     Harris-Foulkes estimate   =     -97.62605546 Ry
     estimated scf accuracy    <          3.6E-11 Ry

     iteration # 33     ecut=   100.00 Ry     beta=0.70
     CG style diagonalization
     ethr =  1.00E-13,  avg # of iterations =  3.2

     total cpu time spent up to now is      537.7 secs

     total energy              =     -97.62605546 Ry
     Harris-Foulkes estimate   =     -97.62605546 Ry
     estimated scf accuracy    <          6.4E-12 Ry

     iteration # 34     ecut=   100.00 Ry     beta=0.70
     CG style diagonalization
     ethr =  1.00E-13,  avg # of iterations =  3.0

     total cpu time spent up to now is      549.9 secs

     total energy              =     -97.62605546 Ry
     Harris-Foulkes estimate   =     -97.62605546 Ry
     estimated scf accuracy    <          1.0E-12 Ry

     iteration # 35     ecut=   100.00 Ry     beta=0.70
     CG style diagonalization
     ethr =  1.00E-13,  avg # of iterations =  3.0

     total cpu time spent up to now is      562.1 secs

     End of self-consistent calculation

          k = 0.0000 0.0000 0.0000 ( 37541 PWs)   bands (ev):

    -9.9034  -9.7809  -7.3733  -7.2411  -7.0931  -4.2930  -3.2158  -1.9098
    -1.3077  -0.9365  -0.6574  -0.4511  -0.2717  -0.1526   0.8546   1.1502
     1.5009   1.7416   2.0749   2.2147   2.7072   3.3263   4.4220   4.5617
     4.7387

          k = 0.0000 0.0000 0.1472 ( 37540 PWs)   bands (ev):

    -9.8908  -9.7951  -7.3613  -7.2379  -7.1068  -4.2903  -3.2153  -1.9116
    -1.2804  -1.0179  -0.6318  -0.4288  -0.3709  -0.0346   0.8460   1.1398
     1.5043   1.7727   2.0709   2.2274   2.6675   3.3660   4.2799   4.6222
     4.7561

          k = 0.0000 0.0000-0.2943 ( 37566 PWs)   bands (ev):

    -9.8726  -9.8150  -7.3486  -7.2332  -7.1227  -4.2875  -3.2149  -1.9137
    -1.2186  -1.1288  -0.5825  -0.4612  -0.4035   0.0451   0.8374   1.1208
     1.5173   1.8079   2.0661   2.2322   2.6361   3.3996   4.1885   4.6653
     4.6749

          k = 0.0000 0.1693-0.0081 ( 37511 PWs)   bands (ev):

    -9.8753  -9.7135  -7.9730  -7.1645  -6.5640  -4.2755  -3.5926  -1.5765
    -1.2852  -0.9615  -0.7441  -0.5016  -0.2638  -0.0588   0.8735   1.2792
     1.5138   1.7081   1.8523   2.1349   2.5782   3.2833   4.5753   4.6893
     4.9594

          k = 0.0000 0.1693 0.1390 ( 37519 PWs)   bands (ev):

    -9.8687  -9.7212  -7.9717  -7.1646  -6.5635  -4.2723  -3.5933  -1.5755
    -1.2884  -1.0189  -0.7654  -0.4505  -0.2273  -0.0302   0.8005   1.3398
     1.5066   1.6387   1.8542   2.1763   2.6134   3.3014   4.5957   4.7399
     4.8517

          k = 0.0000 0.1693-0.3024 ( 37555 PWs)   bands (ev):

    -9.8587  -9.7330  -7.9705  -7.1587  -6.5698  -4.2675  -3.5937  -1.5834
    -1.2509  -1.0966  -0.7235  -0.4955  -0.1587  -0.0714   0.8354   1.2888
     1.5424   1.6704   1.8338   2.2266   2.5505   3.3722   4.4680   4.7239
     4.8743

          k = 0.0000 0.1693-0.1553 ( 37542 PWs)   bands (ev):

    -9.8663  -9.7242  -7.9719  -7.1585  -6.5703  -4.2708  -3.5930  -1.5834
    -1.2595  -1.0346  -0.6774  -0.5692  -0.1969  -0.0922   0.9177   1.2203
     1.5470   1.7334   1.8484   2.1767   2.5072   3.3560   4.4722   4.7195
     4.9170

          k = 0.0000 0.3385-0.0162 ( 37511 PWs)   bands (ev):

    -9.8347  -9.4850  -8.5823  -7.2258  -5.8322  -4.3556  -4.1733  -1.2590
    -1.0809  -0.9265  -0.7334  -0.6432  -0.4456   0.1235   0.8094   1.3094
     1.4759   1.7541   1.8965   2.0255   2.3069   3.1516   4.6402   4.9229
     5.2669

          k = 0.0000 0.3385 0.1309 ( 37506 PWs)   bands (ev):

    -9.8331  -9.4871  -8.5821  -7.2275  -5.8275  -4.3437  -4.1846  -1.2127
    -1.1365  -0.9936  -0.8089  -0.5748  -0.3619   0.1163   0.8723   1.3287
     1.5257   1.6950   1.8235   1.9506   2.3539   3.1763   4.6767   4.9377
     5.2094

          k = 0.0000 0.3385-0.3106 ( 37514 PWs)   bands (ev):

    -9.8303  -9.4910  -8.5820  -7.2254  -5.8301  -4.3136  -4.2095  -1.2915
    -1.0772  -0.9642  -0.8278  -0.5554  -0.4041   0.1001   0.9694   1.2906
     1.5601   1.6405   1.8394   1.9923   2.2983   3.2299   4.5863   4.8900
     5.2552

          k = 0.0000 0.3385-0.1634 ( 37524 PWs)   bands (ev):

    -9.8320  -9.4888  -8.5822  -7.2236  -5.8348  -4.3305  -4.1934  -1.3132
    -1.0370  -0.8869  -0.7959  -0.5940  -0.4918   0.1077   0.8756   1.2998
     1.5357   1.7019   1.8703   2.0823   2.2466   3.2136   4.5261   4.9617
     5.2423

          k = 0.0000-0.5078 0.0244 ( 37474 PWs)   bands (ev):

    -9.8175  -9.1324  -9.0636  -7.2573  -5.1304  -5.0261  -4.1864  -1.2753
    -0.9684  -0.8685  -0.6500  -0.5834  -0.3561  -0.1877   0.8692   1.0928
     1.6515   1.8413   1.9416   2.0531   2.1772   3.0406   4.5930   4.9721
     5.4331

          k = 0.0000-0.5078 0.1715 ( 37531 PWs)   bands (ev):

    -9.8166  -9.1333  -9.0641  -7.2581  -5.1283  -5.0182  -4.1915  -1.2753
    -1.0142  -0.8464  -0.7098  -0.5548  -0.3569  -0.1807   1.0149   1.1609
     1.6279   1.7754   1.8698   2.0082   2.1618   3.0752   4.5196   4.9545
     5.5220

          k = 0.0000-0.5078-0.2700 ( 37502 PWs)   bands (ev):

    -9.8158  -9.1342  -9.0647  -7.2590  -5.1262  -5.0103  -4.1968  -1.2721
    -1.0451  -0.8980  -0.6356  -0.5943  -0.3659  -0.1746   1.2289   1.2495
     1.5154   1.7184   1.8095   1.9403   2.1463   3.1097   4.4882   4.9015
     5.6592

          k = 0.1429-0.0146 0.0659 ( 37536 PWs)   bands (ev):

    -9.8904  -9.7783  -7.3609  -7.2579  -7.1101  -4.3095  -3.2119  -1.9357
    -1.2355  -1.0634  -0.6898  -0.5452  -0.3044   0.0318   0.8670   1.0777
     1.5980   1.6852   2.1156   2.2017   2.7799   3.3524   4.3488   4.6425
     4.9356

          k = 0.1429-0.0146 0.2131 ( 37529 PWs)   bands (ev):

    -9.8726  -9.7980  -7.3475  -7.2581  -7.1210  -4.3075  -3.2095  -1.9332
    -1.2306  -1.1220  -0.6684  -0.4616  -0.4406   0.1284   0.8395   1.0723
     1.6111   1.7325   2.0635   2.2378   2.7475   3.4358   4.1850   4.6638
     4.8578

          k = 0.1429-0.0146-0.2284 ( 37532 PWs)   bands (ev):

    -9.8722  -9.7983  -7.3501  -7.2693  -7.1055  -4.3120  -3.2081  -1.9301
    -1.3051  -1.0271  -0.6733  -0.5560  -0.3685   0.1382   0.8224   1.1115
     1.5988   1.7381   2.1031   2.2363   2.7157   3.3857   4.1585   4.5467
     4.8211

          k = 0.1429-0.0146-0.0813 ( 37513 PWs)   bands (ev):

    -9.8901  -9.7785  -7.3639  -7.2671  -7.0960  -4.3140  -3.2105  -1.9325
    -1.2986  -0.9727  -0.6908  -0.6026  -0.2865   0.0495   0.8446   1.1196
     1.5869   1.6965   2.1390   2.2137   2.7449   3.2974   4.3220   4.6003
     4.7861

          k = 0.1429 0.1546 0.0578 ( 37523 PWs)   bands (ev):

    -9.8688  -9.7096  -7.9618  -7.1612  -6.5845  -4.2906  -3.6308  -1.5666
    -1.3198  -0.9962  -0.7998  -0.5268  -0.2803  -0.0116   0.8697   1.2931
     1.5772   1.6787   1.8684   2.2306   2.6731   3.2986   4.6805   4.7932
     5.0055

          k = 0.1429 0.1546 0.2049 ( 37525 PWs)   bands (ev):

    -9.8583  -9.7220  -7.9601  -7.1569  -6.5892  -4.2850  -3.6312  -1.5704
    -1.3307  -1.0439  -0.7495  -0.5297  -0.2818   0.0199   0.8249   1.2438
     1.6061   1.7016   1.8479   2.2831   2.6958   3.3662   4.5934   4.8340
     4.9047

          k = 0.1429 0.1546-0.2365 ( 37543 PWs)   bands (ev):

    -9.8565  -9.7240  -7.9612  -7.1542  -6.5894  -4.2899  -3.6301  -1.5605
    -1.3432  -1.0183  -0.6854  -0.6356  -0.2598  -0.0210   0.8964   1.2050
     1.6363   1.7499   1.8350   2.2763   2.6412   3.3629   4.4878   4.8296
     4.9113

          k = 0.1429 0.1546-0.0894 ( 37504 PWs)   bands (ev):

    -9.8673  -9.7113  -7.9629  -7.1585  -6.5846  -4.2954  -3.6297  -1.5542
    -1.3405  -0.9349  -0.8056  -0.5902  -0.2690  -0.0394   0.9314   1.2612
     1.6110   1.7088   1.8659   2.2251   2.6180   3.2979   4.5434   4.8642
     4.9910

          k = 0.1429 0.3239 0.0497 ( 37501 PWs)   bands (ev):

    -9.8313  -9.4831  -8.5671  -7.2207  -5.8440  -4.3857  -4.2079  -1.2954
    -1.0958  -1.0135  -0.8330  -0.5910  -0.4537   0.1463   0.9519   1.4147
     1.5369   1.7139   1.8688   2.0495   2.3423   3.1557   4.8735   5.0375
     5.2762

          k = 0.1429 0.3239 0.1968 ( 37518 PWs)   bands (ev):

    -9.8282  -9.4876  -8.5665  -7.2198  -5.8448  -4.3704  -4.2163  -1.2974
    -1.1477  -1.0417  -0.8195  -0.5800  -0.3847   0.1281   0.9907   1.3088
     1.5348   1.7808   1.8752   2.0127   2.3880   3.2019   4.8202   4.9163
     5.3446

          k = 0.1429 0.3239-0.2447 ( 37530 PWs)   bands (ev):

    -9.8274  -9.4887  -8.5670  -7.2173  -5.8471  -4.3680  -4.2203  -1.3250
    -1.1237  -0.9498  -0.7998  -0.6231  -0.4621   0.0940   0.9695   1.3113
     1.6034   1.7064   1.9073   2.0924   2.4023   3.2156   4.7921   4.8613
     5.2880

          k = 0.1429 0.3239-0.0975 ( 37549 PWs)   bands (ev):

    -9.8306  -9.4841  -8.5676  -7.2182  -5.8463  -4.3837  -4.2114  -1.3211
    -1.0726  -0.9126  -0.7729  -0.6879  -0.5266   0.1109   0.9349   1.4397
     1.5237   1.7386   1.8732   2.1105   2.3566   3.1720   4.7850   5.0167
     5.3004

          k = 0.1429-0.5224 0.0902 ( 37539 PWs)   bands (ev):

    -9.8132  -9.1254  -9.0576  -7.2539  -5.1507  -5.0429  -4.2141  -1.3123
    -1.0482  -0.9003  -0.7569  -0.5937  -0.2782  -0.1489   1.0391   1.2799
     1.6059   1.7699   1.9194   2.0951   2.1505   3.0720   4.7031   5.0224
     5.4970

          k = 0.1429-0.5224 0.2374 ( 37527 PWs)   bands (ev):

    -9.8121  -9.1264  -9.0585  -7.2548  -5.1476  -5.0371  -4.2146  -1.3391
    -1.0225  -1.0071  -0.7139  -0.5851  -0.2751  -0.1260   1.2236   1.3847
     1.5253   1.6111   1.8982   2.0420   2.1446   3.1083   4.6525   4.9298
     5.5779

          k = 0.1429-0.5224-0.2041 ( 37532 PWs)   bands (ev):

    -9.8120  -9.1261  -9.0591  -7.2542  -5.1430  -5.0446  -4.2122  -1.2848
    -1.1017  -0.9317  -0.7696  -0.5733  -0.2916  -0.1415   1.1739   1.2808
     1.5464   1.8104   1.8938   2.0253   2.1882   3.0992   4.5966   4.9055
     5.6584

          k = 0.1429-0.5224-0.0569 ( 37508 PWs)   bands (ev):

    -9.8131  -9.1251  -9.0582  -7.2533  -5.1461  -5.0503  -4.2118  -1.2635
    -1.0305  -0.9662  -0.7217  -0.6285  -0.2894  -0.1654   1.0216   1.2125
     1.6372   1.8603   1.9398   2.0684   2.2082   3.0683   4.6353   5.0019
     5.5317

          k = 0.1429-0.3531 0.0821 ( 37509 PWs)   bands (ev):

    -9.8274  -9.4708  -8.5918  -7.2252  -5.8631  -4.3321  -4.2081  -1.3902
    -1.0268  -0.8929  -0.7682  -0.6555  -0.4223   0.0438   0.9277   1.3871
     1.4592   1.8184   1.8960   2.0027   2.3117   3.2129   4.4700   5.0171
     5.2900

          k = 0.1429-0.3531 0.2293 ( 37489 PWs)   bands (ev):

    -9.8252  -9.4735  -8.5923  -7.2255  -5.8602  -4.2952  -4.2406  -1.4516
    -0.9896  -0.9284  -0.7758  -0.6087  -0.4166   0.0311   1.0474   1.3967
     1.4975   1.6978   1.8420   1.9828   2.3237   3.2512   4.5050   5.0108
     5.2400

          k = 0.1429-0.3531-0.2122 ( 37501 PWs)   bands (ev):

    -9.8257  -9.4728  -8.5923  -7.2273  -5.8563  -4.3239  -4.2137  -1.4103
    -1.0646  -0.9452  -0.7365  -0.6746  -0.3241   0.0193   1.0651   1.3500
     1.5029   1.7265   1.8059   1.9874   2.3664   3.2138   4.5699   4.9854
     5.2035

          k = 0.1429-0.3531-0.0650 ( 37494 PWs)   bands (ev):

    -9.8278  -9.4702  -8.5918  -7.2270  -5.8592  -4.3493  -4.1927  -1.3291
    -1.1100  -0.9014  -0.7969  -0.6741  -0.3311   0.0368   0.9408   1.3509
     1.4697   1.7527   1.9136   2.0352   2.3593   3.1714   4.5093   5.0316
     5.2865

          k = 0.1429-0.1839 0.0740 ( 37509 PWs)   bands (ev):

    -9.8630  -9.7062  -7.9867  -7.1633  -6.5852  -4.2931  -3.5705  -1.6444
    -1.2228  -1.0372  -0.7448  -0.5407  -0.2368  -0.0594   0.9449   1.1956
     1.5677   1.7698   1.8540   2.1240   2.6050   3.3437   4.3691   4.7084
     4.9792

          k = 0.1429-0.1839 0.2212 ( 37530 PWs)   bands (ev):

    -9.8542  -9.7165  -7.9862  -7.1613  -6.5854  -4.2896  -3.5698  -1.6409
    -1.3065  -0.9989  -0.7254  -0.5490  -0.2265  -0.0346   0.8976   1.2643
     1.6087   1.6966   1.8577   2.1304   2.5912   3.4072   4.3982   4.6406
     4.8987

          k = 0.1429-0.1839-0.2203 ( 37527 PWs)   bands (ev):

    -9.8553  -9.7151  -7.9865  -7.1655  -6.5793  -4.2925  -3.5697  -1.6464
    -1.3246  -0.9679  -0.7440  -0.5381  -0.2597   0.0343   0.8401   1.3380
     1.5868   1.6297   1.8736   2.1509   2.6311   3.3326   4.3851   4.6023
     4.9952

          k = 0.1429-0.1839-0.0731 ( 37514 PWs)   bands (ev):

    -9.8640  -9.7050  -7.9869  -7.1675  -6.5792  -4.2959  -3.5703  -1.6513
    -1.2431  -1.0095  -0.7525  -0.5349  -0.2746   0.0158   0.8692   1.2811
     1.5631   1.6770   1.8923   2.1248   2.6567   3.2741   4.3579   4.7307
     4.9829

          k = 0.2857-0.0293 0.1318 ( 37496 PWs)   bands (ev):

    -9.8640  -9.7683  -7.3505  -7.3036  -7.1216  -4.3527  -3.1981  -1.9708
    -1.2796  -1.0775  -0.8445  -0.5429  -0.3855   0.2101   0.8563   0.9957
     1.5516   1.8228   2.0995   2.3157   2.8645   3.4716   4.3134   4.7721
     4.9545

          k = 0.2857-0.0293 0.2790 ( 37497 PWs)   bands (ev):

    -9.8557  -9.7771  -7.3479  -7.3187  -7.1059  -4.3573  -3.1936  -1.9637
    -1.3300  -1.0998  -0.7335  -0.5895  -0.4078   0.2332   0.7989   1.0655
     1.5731   1.8328   2.0963   2.3291   2.8217   3.4883   4.1689   4.6735
     4.9521

          k = 0.2857-0.0293-0.1625 ( 37503 PWs)   bands (ev):

    -9.8631  -9.7692  -7.3480  -7.3223  -7.1023  -4.3597  -3.1973  -1.9699
    -1.3083  -1.0553  -0.7976  -0.6580  -0.3092   0.2238   0.8118   1.0767
     1.6180   1.7377   2.1710   2.3025   2.8177   3.3554   4.2420   4.7040
     4.8587

          k = 0.2857-0.0293-0.0154 ( 37521 PWs)   bands (ev):

    -9.8701  -9.7615  -7.3505  -7.3078  -7.1175  -4.3552  -3.2018  -1.9771
    -1.2384  -1.0623  -0.8752  -0.6385  -0.2800   0.1965   0.8695   1.0066
     1.5965   1.7407   2.1476   2.2964   2.8700   3.3409   4.4634   4.6434
     4.9255

          k = 0.2857 0.1400 0.1237 ( 37519 PWs)   bands (ev):

    -9.8497  -9.6955  -7.9630  -7.1561  -6.6300  -4.3277  -3.6557  -1.5905
    -1.4217  -0.9908  -0.7730  -0.6605  -0.3195   0.0202   0.9413   1.2022
     1.5789   1.8134   1.8804   2.3943   2.8045   3.3944   4.6689   4.7830
     5.0937

          k = 0.2857 0.1400 0.2708 ( 37505 PWs)   bands (ev):

    -9.8442  -9.7017  -7.9641  -7.1541  -6.6278  -4.3331  -3.6534  -1.5718
    -1.4495  -0.9844  -0.7165  -0.6935  -0.3340   0.0035   0.9205   1.1678
     1.6616   1.7419   1.9437   2.4245   2.7846   3.4398   4.4950   4.9001
     5.0452

          k = 0.2857 0.1400-0.1706 ( 37512 PWs)   bands (ev):

    -9.8484  -9.6969  -7.9653  -7.1553  -6.6240  -4.3419  -3.6534  -1.5714
    -1.3660  -1.0599  -0.8085  -0.6314  -0.2966  -0.0423   1.0067   1.2299
     1.6113   1.7109   1.9821   2.3906   2.7375   3.3755   4.4803   4.9473
     5.0325

          k = 0.2857 0.1400-0.0235 ( 37502 PWs)   bands (ev):

    -9.8535  -9.6910  -7.9643  -7.1573  -6.6262  -4.3364  -3.6556  -1.5880
    -1.3240  -1.0926  -0.8218  -0.6298  -0.2838  -0.0267   1.0441   1.2543
     1.5427   1.7518   1.9214   2.3675   2.7597   3.3337   4.5695   4.8993
     5.1611

          k = 0.2857 0.3093 0.1156 ( 37517 PWs)   bands (ev):

    -9.8197  -9.4670  -8.5570  -7.2123  -5.8944  -4.4199  -4.2577  -1.4144
    -1.1922  -1.0642  -0.8117  -0.6448  -0.4217   0.1234   1.1021   1.3973
     1.5411   1.7512   1.9723   2.2408   2.5104   3.2078   4.8169   5.1340
     5.3319

          k = 0.2857 0.3093 0.2627 ( 37512 PWs)   bands (ev):

    -9.8178  -9.4695  -8.5574  -7.2107  -5.8939  -4.4190  -4.2590  -1.4530
    -1.1673  -1.0391  -0.7899  -0.6355  -0.4139   0.0573   1.0423   1.2384
     1.6564   1.7867   2.0510   2.2816   2.5161   3.2714   4.7936   5.0851
     5.2830

          k = 0.2857 0.3093-0.1788 ( 37514 PWs)   bands (ev):

    -9.8191  -9.4675  -8.5582  -7.2105  -5.8911  -4.4182  -4.2719  -1.4347
    -1.1066  -0.9164  -0.8295  -0.7183  -0.5563   0.0632   1.0682   1.3722
     1.6058   1.8124   2.0534   2.2471   2.4831   3.2639   4.9395   5.1499
     5.1777

          k = 0.2857 0.3093-0.0316 ( 37485 PWs)   bands (ev):

    -9.8210  -9.4649  -8.5578  -7.2121  -5.8917  -4.4191  -4.2706  -1.3955
    -1.1292  -0.9869  -0.7974  -0.7310  -0.5680   0.1249   1.1871   1.4209
     1.6303   1.6913   1.9549   2.2448   2.4518   3.2085   4.9397   5.1120
     5.3410

          k = 0.2857-0.5370 0.1561 ( 37523 PWs)   bands (ev):

    -9.8036  -9.1085  -9.0451  -7.2453  -5.1934  -5.0957  -4.2606  -1.3884
    -1.1586  -1.0247  -0.8673  -0.5842  -0.2332  -0.0597   1.2588   1.4944
     1.5417   1.7590   1.9339   2.1160   2.3360   3.1677   4.8265   5.0595
     5.4837

          k = 0.2857-0.5370 0.3033 ( 37524 PWs)   bands (ev):

    -9.8029  -9.1086  -9.0463  -7.2449  -5.1893  -5.1020  -4.2522  -1.3794
    -1.2157  -1.0338  -0.7986  -0.5951  -0.2720  -0.0423   1.2471   1.3688
     1.6523   1.7374   1.9793   2.2107   2.3122   3.1701   4.7143   4.9716
     5.5573

          k = 0.2857-0.5370-0.1382 ( 37493 PWs)   bands (ev):

    -9.8034  -9.1079  -9.0462  -7.2443  -5.1890  -5.1023  -4.2611  -1.2846
    -1.1804  -1.0375  -0.8192  -0.7067  -0.2837  -0.0853   1.1794   1.4759
     1.6849   1.8238   1.9902   2.1745   2.3108   3.1397   4.7226   5.0762
     5.4174

          k = 0.2857-0.5370 0.0090 ( 37493 PWs)   bands (ev):

    -9.8041  -9.1079  -9.0449  -7.2448  -5.1932  -5.0959  -4.2695  -1.2854
    -1.1671  -0.9657  -0.8913  -0.7207  -0.2454  -0.1036   1.2633   1.4551
     1.6291   1.8581   1.9660   2.1044   2.2961   3.1388   4.8774   5.1084
     5.3936

          k = 0.2857-0.3678 0.1480 ( 37497 PWs)   bands (ev):

    -9.8158  -9.4488  -8.5902  -7.2203  -5.9093  -4.3305  -4.2914  -1.5330
    -0.9929  -0.9298  -0.8390  -0.6776  -0.4693   0.0383   1.1294   1.3858
     1.5807   1.7735   1.8879   2.1591   2.4393   3.3048   4.5289   5.1260
     5.1976

          k = 0.2857-0.3678 0.2952 ( 37486 PWs)   bands (ev):

    -9.8151  -9.4496  -8.5907  -7.2209  -5.9082  -4.3492  -4.2650  -1.5650
    -1.0314  -0.9138  -0.8509  -0.6751  -0.4084   0.0391   1.2112   1.3901
     1.5157   1.6464   1.9957   2.1016   2.5100   3.2750   4.6388   4.9690
     5.2806

          k = 0.2857-0.3678-0.1463 ( 37500 PWs)   bands (ev):

    -9.8159  -9.4490  -8.5897  -7.2209  -5.9095  -4.3678  -4.2505  -1.4634
    -1.0675  -0.9665  -0.8823  -0.7200  -0.3735   0.0529   1.1866   1.3665
     1.5162   1.8310   1.9205   2.1211   2.5056   3.2215   4.5488   5.0595
     5.2669

          k = 0.2857-0.3678 0.0009 ( 37478 PWs)   bands (ev):

    -9.8166  -9.4482  -8.5892  -7.2204  -5.9107  -4.3582  -4.2678  -1.4073
    -1.1082  -0.9592  -0.8054  -0.7594  -0.4326   0.0538   1.1194   1.3762
     1.5818   1.8282   1.9600   2.1488   2.4151   3.2565   4.4680   5.0809
     5.2986

          k = 0.2857-0.1985 0.1399 ( 37512 PWs)   bands (ev):

    -9.8445  -9.6882  -7.9968  -7.1625  -6.6221  -4.3378  -3.5797  -1.6661
    -1.3548  -1.0106  -0.7622  -0.5824  -0.2954  -0.0373   0.9007   1.2479
     1.6123   1.7834   1.9724   2.2054   2.7174   3.4304   4.3728   4.7434
     4.9438

          k = 0.2857-0.1985 0.2871 ( 37502 PWs)   bands (ev):

    -9.8414  -9.6917  -7.9973  -7.1645  -6.6177  -4.3360  -3.5782  -1.6928
    -1.4057  -0.9346  -0.7368  -0.6150  -0.3109   0.0089   0.8414   1.3517
     1.6077   1.7974   1.8387   2.2240   2.7715   3.3995   4.4901   4.5819
     5.0493

          k = 0.2857-0.1985-0.1544 ( 37529 PWs)   bands (ev):

    -9.8446  -9.6882  -7.9963  -7.1656  -6.6186  -4.3370  -3.5803  -1.6989
    -1.3515  -0.9601  -0.7929  -0.6011  -0.3129   0.0388   0.8918   1.2813
     1.6464   1.7392   1.9088   2.1964   2.7932   3.3386   4.3527   4.7193
     5.1217

          k = 0.2857-0.1985-0.0073 ( 37505 PWs)   bands (ev):

    -9.8476  -9.6848  -7.9958  -7.1636  -6.6230  -4.3389  -3.5818  -1.6750
    -1.2549  -1.0907  -0.8053  -0.5726  -0.2931  -0.0075   0.9705   1.1731
     1.6405   1.7503   1.9889   2.2000   2.7448   3.3625   4.2991   4.8015
     5.0684

          k = 0.4286-0.0439 0.1977 ( 37507 PWs)   bands (ev):

    -9.8473  -9.7541  -7.3842  -7.3207  -7.1071  -4.3931  -3.1830  -1.9815
    -1.3619  -1.1583  -0.7730  -0.5555  -0.4455   0.2326   0.7702   1.0670
     1.4371   1.9793   2.0914   2.5026   2.8134   3.5438   4.2378   4.9719
     5.1441

          k = 0.4286-0.0439 0.3448 ( 37498 PWs)   bands (ev):

    -9.8471  -9.7544  -7.3811  -7.3237  -7.1067  -4.3944  -3.1850  -1.9847
    -1.3558  -1.1363  -0.7871  -0.6472  -0.3644   0.2507   0.7695   1.0671
     1.4839   1.8937   2.1318   2.5017   2.8073   3.4903   4.2628   4.9082
     5.1327

          k = 0.4286-0.0439-0.0966 ( 37501 PWs)   bands (ev):

    -9.8504  -9.7511  -7.3696  -7.3187  -7.1251  -4.3912  -3.1927  -1.9966
    -1.3088  -1.0496  -0.9176  -0.7073  -0.2920   0.2846   0.8242   1.0018
     1.5625   1.7587   2.1493   2.4690   2.8641   3.4337   4.4793   4.8302
     4.9626

          k = 0.4286-0.0439 0.0505 ( 37512 PWs)   bands (ev):

    -9.8506  -9.7508  -7.3734  -7.3148  -7.1257  -4.3899  -3.1908  -1.9933
    -1.3260  -1.0543  -0.9125  -0.6611  -0.3227   0.2643   0.8267   0.9948
     1.5036   1.8341   2.1320   2.4749   2.8713   3.4807   4.4364   4.8809
     5.0048

          k = 0.4286 0.1254 0.1896 ( 37490 PWs)   bands (ev):

    -9.8352  -9.6774  -7.9796  -7.1573  -6.6560  -4.3664  -3.6468  -1.5951
    -1.5259  -0.9746  -0.7567  -0.6853  -0.3446  -0.0187   0.8950   1.2148
     1.6183   1.7947   1.9500   2.5623   2.8026   3.4950   4.5622   4.9672
     5.2780

          k = 0.4286 0.1254 0.3367 ( 37497 PWs)   bands (ev):

    -9.8351  -9.6774  -7.9806  -7.1576  -6.6517  -4.3769  -3.6463  -1.5758
    -1.4586  -1.0798  -0.7899  -0.6333  -0.3390  -0.0511   0.9426   1.2253
     1.6161   1.7298   2.0649   2.5828   2.7178   3.4681   4.5054   4.9612
     5.2361

          k = 0.4286 0.1254-0.1048 ( 37507 PWs)   bands (ev):

    -9.8375  -9.6749  -7.9790  -7.1568  -6.6557  -4.3757  -3.6498  -1.5773
    -1.3253  -1.2346  -0.8329  -0.5968  -0.3308  -0.0434   1.0938   1.2341
     1.5369   1.6827   2.0649   2.5780   2.7047   3.4295   4.5401   4.9649
     5.1677

          k = 0.4286 0.1254 0.0424 ( 37485 PWs)   bands (ev):

    -9.8376  -9.6749  -7.9779  -7.1565  -6.6599  -4.3652  -3.6504  -1.5959
    -1.4644  -1.0581  -0.8068  -0.6595  -0.3085  -0.0252   1.0375   1.2281
     1.5313   1.7767   1.9328   2.5702   2.7786   3.4535   4.6611   4.8667
     5.2528

          k = 0.4286 0.2946 0.1815 ( 37502 PWs)   bands (ev):

    -9.8095  -9.4460  -8.5618  -7.2084  -5.9392  -4.4369  -4.2884  -1.5442
    -1.1747  -1.0232  -0.8593  -0.6834  -0.3999   0.0727   1.0539   1.3241
     1.6399   1.7719   2.1025   2.3833   2.6812   3.3462   4.7744   5.0839
     5.3148

          k = 0.4286 0.2946 0.3286 ( 37516 PWs)   bands (ev):

    -9.8095  -9.4458  -8.5624  -7.2085  -5.9342  -4.4319  -4.3067  -1.5338
    -1.1142  -0.9823  -0.8477  -0.7013  -0.5236   0.0512   1.0731   1.2624
     1.6396   1.9462   2.1107   2.3700   2.5960   3.3887   4.9325   5.0369
     5.3033

          k = 0.4286 0.2946-0.1129 ( 37465 PWs)   bands (ev):

    -9.8106  -9.4446  -8.5619  -7.2088  -5.9341  -4.4193  -4.3264  -1.4311
    -1.1551  -0.9854  -0.8323  -0.7343  -0.6620   0.0947   1.2209   1.4147
     1.5821   1.8321   2.1113   2.3888   2.5073   3.3303   4.8908   5.0747
     5.3622

          k = 0.4286 0.2946 0.0343 ( 37465 PWs)   bands (ev):

    -9.8106  -9.4448  -8.5613  -7.2088  -5.9390  -4.4272  -4.3052  -1.4386
    -1.2306  -0.9811  -0.8666  -0.7901  -0.4809   0.1205   1.2593   1.3887
     1.6211   1.7212   2.0205   2.4175   2.5839   3.2869   4.8002   5.0953
     5.3325

          k = 0.4286-0.5517 0.2220 ( 37484 PWs)   bands (ev):

    -9.7958  -9.0936  -9.0362  -7.2373  -5.2288  -5.1470  -4.2855  -1.4060
    -1.3120  -1.0701  -0.8564  -0.5785  -0.2983  -0.0062   1.1728   1.4246
     1.6557   1.8137   2.1032   2.3206   2.5354   3.2895   4.6272   5.1271
     5.5597

          k = 0.4286-0.5517 0.3692 ( 37511 PWs)   bands (ev):

    -9.7959  -9.0934  -9.0363  -7.2371  -5.2289  -5.1449  -4.2914  -1.3577
    -1.2960  -1.0678  -0.8614  -0.6595  -0.3128  -0.0259   1.1969   1.4440
     1.7051   1.8529   2.1744   2.2909   2.4375   3.2791   4.6849   5.0708
     5.5457

          k = 0.4286-0.5517-0.0723 ( 37450 PWs)   bands (ev):

    -9.7965  -9.0934  -9.0352  -7.2375  -5.2305  -5.1349  -4.3112  -1.2881
    -1.1578  -1.0552  -0.9709  -0.8325  -0.2653  -0.0752   1.2671   1.6310
     1.6868   1.9341   2.1247   2.1917   2.3216   3.2446   4.9484   5.0712
     5.4582

          k = 0.4286-0.5517 0.0749 ( 37492 PWs)   bands (ev):

    -9.7964  -9.0936  -9.0351  -7.2377  -5.2305  -5.1371  -4.3052  -1.3474
    -1.1939  -1.0622  -0.9658  -0.7141  -0.2573  -0.0568   1.2819   1.5074
     1.6790   1.9303   2.0467   2.2231   2.4099   3.2582   4.8508   5.2459
     5.3671

          k = 0.4286-0.3824 0.2139 ( 37473 PWs)   bands (ev):

    -9.8081  -9.4369  -8.5775  -7.2129  -5.9426  -4.4033  -4.3006  -1.5963
    -1.0885  -0.9588  -0.8099  -0.7423  -0.4700   0.0642   1.0926   1.3406
     1.5871   1.8138   2.0649   2.3310   2.6234   3.3937   4.7195   5.0944
     5.2737

          k = 0.4286-0.3824 0.3611 ( 37483 PWs)   bands (ev):

    -9.8082  -9.4372  -8.5767  -7.2126  -5.9460  -4.4082  -4.2903  -1.5487
    -1.1276  -0.9694  -0.8473  -0.8061  -0.4169   0.0925   1.2127   1.3397
     1.5955   1.7061   2.1014   2.3384   2.6220   3.3290   4.6868   5.0263
     5.3667

          k = 0.4286-0.3824-0.0804 ( 37456 PWs)   bands (ev):

    -9.8088  -9.4368  -8.5759  -7.2127  -5.9447  -4.3933  -4.3179  -1.3941
    -1.2159  -0.9531  -0.9008  -0.8088  -0.4986   0.1007   1.2913   1.3557
     1.5875   1.8390   2.0475   2.3200   2.5427   3.3067   4.6476   5.1229
     5.2725

          k = 0.4286-0.3824 0.0668 ( 37478 PWs)   bands (ev):

    -9.8088  -9.4365  -8.5767  -7.2130  -5.9413  -4.3833  -4.3332  -1.4953
    -1.0862  -0.9794  -0.8544  -0.7402  -0.5657   0.0682   1.1937   1.3191
     1.6279   1.8790   2.0543   2.3516   2.5005   3.3692   4.6875   5.0995
     5.3089

          k = 0.4286-0.2131 0.2058 ( 37504 PWs)   bands (ev):

    -9.8337  -9.6729  -7.9956  -7.1619  -6.6490  -4.3733  -3.6128  -1.6513
    -1.4640  -1.0131  -0.7360  -0.6435  -0.3345  -0.0462   0.8545   1.2868
     1.5897   1.8053   1.9758   2.4783   2.7717   3.4808   4.4796   4.9267
     5.1652

          k = 0.4286-0.2131 0.3530 ( 37491 PWs)   bands (ev):

    -9.8336  -9.6732  -7.9941  -7.1615  -6.6523  -4.3674  -3.6147  -1.6724
    -1.4716  -0.9711  -0.7636  -0.6644  -0.3170  -0.0178   0.8871   1.3171
     1.5673   1.7798   1.9143   2.4611   2.8366   3.4615   4.5399   4.9042
     5.1617

          k = 0.4286-0.2131-0.0885 ( 37495 PWs)   bands (ev):

    -9.8351  -9.6718  -7.9926  -7.1598  -6.6561  -4.3708  -3.6181  -1.6419
    -1.3778  -1.1237  -0.8038  -0.6127  -0.3222  -0.0175   1.0376   1.2068
     1.5842   1.7215   2.0144   2.4232   2.8183   3.4371   4.5106   4.8524
     5.0975

          k = 0.4286-0.2131 0.0586 ( 37486 PWs)   bands (ev):

    -9.8352  -9.6715  -7.9941  -7.1602  -6.6528  -4.3766  -3.6163  -1.6140
    -1.3757  -1.1480  -0.8038  -0.5808  -0.3420  -0.0462   0.9761   1.2338
     1.5514   1.7686   2.0938   2.4346   2.7471   3.4582   4.4579   4.7974
     5.2380

     the Fermi energy is     2.8975 ev

!    total energy              =     -97.62605546 Ry
     Harris-Foulkes estimate   =     -97.62605546 Ry
     estimated scf accuracy    <          1.3E-13 Ry

     The total energy is the sum of the following terms:

     one-electron contribution =     -28.67643079 Ry
     hartree contribution      =      28.22984422 Ry
     xc contribution           =     -27.91511558 Ry
     ewald contribution        =     -69.26449883 Ry
     smearing contrib. (-TS)   =       0.00014551 Ry

     convergence has been achieved in  35 iterations

     Forces acting on atoms (Ry/au):

     atom    1 type  1   force =    -0.00204468    0.00032706   -0.00177844
     atom    2 type  1   force =    -0.00205916    0.00139321    0.00163933
     atom    3 type  1   force =     0.00038581   -0.00094673   -0.00011607
     atom    4 type  1   force =    -0.00255899    0.00130663   -0.00051016
     atom    5 type  1   force =     0.00089952    0.00010484    0.00454222
     atom    6 type  1   force =     0.00043780   -0.00124935   -0.00179761
     atom    7 type  1   force =     0.00203616    0.00135933   -0.00133438
     atom    8 type  2   force =    -0.00011611   -0.00136175    0.00354681
     atom    9 type  2   force =    -0.00272362    0.00089978   -0.00100027
     atom   10 type  2   force =    -0.00041510   -0.00013922   -0.00265962
     atom   11 type  2   force =     0.00051104   -0.00125855    0.00137919
     atom   12 type  2   force =     0.00174012    0.00020804    0.00162335
     atom   13 type  2   force =     0.00278444   -0.00069700   -0.00347893
     atom   14 type  2   force =     0.00112277    0.00005371   -0.00005542

     Total force =     0.011050     Total SCF correction =     0.000000


     entering subroutine stress ...

          total   stress  (Ry/bohr**3)                   (kbar)     P=   13.49
   0.00009206   0.00000242  -0.00000321         13.54      0.36     -0.47
   0.00000242   0.00009329   0.00000125          0.36     13.72      0.18
  -0.00000321   0.00000125   0.00008968         -0.47      0.18     13.19


     BFGS Geometry Optimization

     number of scf cycles    =   1
     number of bfgs steps    =   0

     enthalpy new            =     -97.6260554623 Ry

     new trust radius        =       0.0219916005 bohr
     new conv_thr            =            1.0E-12 Ry

     new unit-cell volume =   2236.41529 a.u.^3 (   331.40255 Ang^3 )

CELL_PARAMETERS (angstrom)
   5.829606832   0.000352425  -0.000466552
   0.588255227   5.740621254   0.000132244
  -4.520305677   0.474992742   9.903230600

ATOMIC_POSITIONS (crystal)
Na       0.150570284   0.900567100   0.530954753
Na       0.202875469   0.112469464   0.833903797
Na       0.247917053   0.645501040   0.036177784
Na       0.279342590   0.408109989   0.364042677
Na       0.763582492   0.317500560   0.956126266
Na       0.780358032   0.584926530   0.637016726
Na       0.788610588   0.926963510   0.159671535
P        0.272067977   0.145557463   0.130956955
P        0.332080833   0.610524569   0.788893429
P        0.344457911   0.346758921   0.639541560
P        0.377289105   0.909176603   0.300367865
P        0.667898512   0.815687029   0.871158941
P        0.671469828   0.066725015   0.713081680
P        0.687372327   0.651882208   0.345335032



     Writing output data file NaP-GA-5oe5v6-1x32-vcr.save
     NEW-OLD atomic charge density approx. for the potential
     extrapolated charge   42.24181, renormalised to   42.00000

     total cpu time spent up to now is      568.3 secs

     per-process dynamical memory:    96.5 Mb

     Self-consistent Calculation

     iteration #  1     ecut=   100.00 Ry     beta=0.70
     CG style diagonalization
     c_bands:  1 eigenvalues not converged
     c_bands:  2 eigenvalues not converged
     c_bands:  1 eigenvalues not converged
     c_bands:  1 eigenvalues not converged
     c_bands:  1 eigenvalues not converged
     c_bands:  2 eigenvalues not converged
     c_bands:  2 eigenvalues not converged
     c_bands:  3 eigenvalues not converged
     c_bands:  2 eigenvalues not converged
     c_bands:  3 eigenvalues not converged
     c_bands:  1 eigenvalues not converged
     c_bands:  2 eigenvalues not converged
     c_bands:  4 eigenvalues not converged
     c_bands:  2 eigenvalues not converged
     c_bands:  1 eigenvalues not converged
     c_bands:  1 eigenvalues not converged
     c_bands:  1 eigenvalues not converged
     c_bands:  1 eigenvalues not converged
     c_bands:  3 eigenvalues not converged
     c_bands:  2 eigenvalues not converged
     c_bands:  3 eigenvalues not converged
     c_bands:  2 eigenvalues not converged
     c_bands:  3 eigenvalues not converged
     c_bands:  1 eigenvalues not converged
     c_bands:  3 eigenvalues not converged
     c_bands:  1 eigenvalues not converged
     c_bands:  2 eigenvalues not converged
     c_bands:  4 eigenvalues not converged
     c_bands:  4 eigenvalues not converged
     c_bands:  3 eigenvalues not converged
     c_bands:  2 eigenvalues not converged
     c_bands:  1 eigenvalues not converged
     c_bands:  1 eigenvalues not converged
     c_bands:  1 eigenvalues not converged
     c_bands:  1 eigenvalues not converged
     c_bands:  1 eigenvalues not converged
     c_bands:  1 eigenvalues not converged
     c_bands:  2 eigenvalues not converged
     c_bands:  1 eigenvalues not converged
     c_bands:  2 eigenvalues not converged
     c_bands:  1 eigenvalues not converged
     c_bands:  1 eigenvalues not converged
     c_bands:  1 eigenvalues not converged
     c_bands:  2 eigenvalues not converged
     c_bands:  2 eigenvalues not converged
     c_bands:  1 eigenvalues not converged
     c_bands:  2 eigenvalues not converged
     c_bands:  3 eigenvalues not converged
     c_bands:  3 eigenvalues not converged
     c_bands:  4 eigenvalues not converged
     c_bands:  2 eigenvalues not converged
     c_bands:  1 eigenvalues not converged
     c_bands:  2 eigenvalues not converged
     c_bands:  1 eigenvalues not converged
     c_bands:  1 eigenvalues not converged
     c_bands:  2 eigenvalues not converged
     c_bands:  2 eigenvalues not converged
     c_bands:  1 eigenvalues not converged
     c_bands:  1 eigenvalues not converged
     c_bands:  1 eigenvalues not converged
     c_bands:  3 eigenvalues not converged
     c_bands:  1 eigenvalues not converged
     c_bands:  5 eigenvalues not converged
     c_bands:  1 eigenvalues not converged
     c_bands:  3 eigenvalues not converged
     c_bands:  2 eigenvalues not converged
     c_bands:  1 eigenvalues not converged
     c_bands:  1 eigenvalues not converged
     c_bands:  1 eigenvalues not converged
     ethr =  1.00E-06,  avg # of iterations =  9.8

     total cpu time spent up to now is      607.9 secs

     total energy              =     -97.62230156 Ry
     Harris-Foulkes estimate   =     -97.49854431 Ry
     estimated scf accuracy    <       0.00450870 Ry

     iteration #  2     ecut=   100.00 Ry     beta=0.70
     CG style diagonalization
     ethr =  1.07E-05,  avg # of iterations =  5.5

     total cpu time spent up to now is      630.0 secs

     total energy              =     -97.62572734 Ry
     Harris-Foulkes estimate   =     -97.63268894 Ry
     estimated scf accuracy    <       0.02035648 Ry

     iteration #  3     ecut=   100.00 Ry     beta=0.70
     CG style diagonalization
     ethr =  1.07E-05,  avg # of iterations =  3.5

     total cpu time spent up to now is      644.1 secs

     total energy              =     -97.62666634 Ry
     Harris-Foulkes estimate   =     -97.62726293 Ry
     estimated scf accuracy    <       0.00391295 Ry

     iteration #  4     ecut=   100.00 Ry     beta=0.70
     CG style diagonalization
     ethr =  9.32E-06,  avg # of iterations =  3.1

     total cpu time spent up to now is      656.5 secs

     total energy              =     -97.62667994 Ry
     Harris-Foulkes estimate   =     -97.62695094 Ry
     estimated scf accuracy    <       0.00244234 Ry

     iteration #  5     ecut=   100.00 Ry     beta=0.70
     CG style diagonalization
     ethr =  5.82E-06,  avg # of iterations =  3.7

     total cpu time spent up to now is      671.6 secs

     total energy              =     -97.62724852 Ry
     Harris-Foulkes estimate   =     -97.62727475 Ry
     estimated scf accuracy    <       0.00057158 Ry

     iteration #  6     ecut=   100.00 Ry     beta=0.70
     CG style diagonalization
     ethr =  1.36E-06,  avg # of iterations =  3.5

     total cpu time spent up to now is      686.0 secs

     total energy              =     -97.62741226 Ry
     Harris-Foulkes estimate   =     -97.62740755 Ry
     estimated scf accuracy    <       0.00028260 Ry

     iteration #  7     ecut=   100.00 Ry     beta=0.70
     CG style diagonalization
     ethr =  6.73E-07,  avg # of iterations =  3.1

     total cpu time spent up to now is      698.6 secs

     total energy              =     -97.62743722 Ry
     Harris-Foulkes estimate   =     -97.62742945 Ry
     estimated scf accuracy    <       0.00025011 Ry

     iteration #  8     ecut=   100.00 Ry     beta=0.70
     CG style diagonalization
     ethr =  5.96E-07,  avg # of iterations =  3.0

     total cpu time spent up to now is      710.8 secs

     total energy              =     -97.62742735 Ry
     Harris-Foulkes estimate   =     -97.62744316 Ry
     estimated scf accuracy    <       0.00025843 Ry

     iteration #  9     ecut=   100.00 Ry     beta=0.70
     CG style diagonalization
     ethr =  5.96E-07,  avg # of iterations =  3.0

     total cpu time spent up to now is      723.1 secs

     total energy              =     -97.62739142 Ry
     Harris-Foulkes estimate   =     -97.62743720 Ry
     estimated scf accuracy    <       0.00021787 Ry

     iteration # 10     ecut=   100.00 Ry     beta=0.70
     CG style diagonalization
     ethr =  5.19E-07,  avg # of iterations =  3.0

     total cpu time spent up to now is      735.4 secs

     total energy              =     -97.62736567 Ry
     Harris-Foulkes estimate   =     -97.62739873 Ry
     estimated scf accuracy    <       0.00013039 Ry

     iteration # 11     ecut=   100.00 Ry     beta=0.70
     CG style diagonalization
     ethr =  3.10E-07,  avg # of iterations =  3.5

     total cpu time spent up to now is      749.8 secs

     total energy              =     -97.62741391 Ry
     Harris-Foulkes estimate   =     -97.62739370 Ry
     estimated scf accuracy    <       0.00002065 Ry

     iteration # 12     ecut=   100.00 Ry     beta=0.70
     CG style diagonalization
     ethr =  4.92E-08,  avg # of iterations =  4.0

     total cpu time spent up to now is      765.8 secs

     total energy              =     -97.62740913 Ry
     Harris-Foulkes estimate   =     -97.62742308 Ry
     estimated scf accuracy    <       0.00008014 Ry

     iteration # 13     ecut=   100.00 Ry     beta=0.70
     CG style diagonalization
     ethr =  4.92E-08,  avg # of iterations =  3.1

     total cpu time spent up to now is      778.3 secs

     total energy              =     -97.62738735 Ry
     Harris-Foulkes estimate   =     -97.62741098 Ry
     estimated scf accuracy    <       0.00004839 Ry

     iteration # 14     ecut=   100.00 Ry     beta=0.70
     CG style diagonalization
     ethr =  4.92E-08,  avg # of iterations =  4.4

     total cpu time spent up to now is      796.0 secs

     total energy              =     -97.62740365 Ry
     Harris-Foulkes estimate   =     -97.62740333 Ry
     estimated scf accuracy    <       0.00000444 Ry

     iteration # 15     ecut=   100.00 Ry     beta=0.70
     CG style diagonalization
     ethr =  1.06E-08,  avg # of iterations =  3.5

     total cpu time spent up to now is      809.9 secs

     total energy              =     -97.62740485 Ry
     Harris-Foulkes estimate   =     -97.62740478 Ry
     estimated scf accuracy    <       0.00000704 Ry

     iteration # 16     ecut=   100.00 Ry     beta=0.70
     CG style diagonalization
     ethr =  1.06E-08,  avg # of iterations =  3.0

     total cpu time spent up to now is      822.1 secs

     total energy              =     -97.62740492 Ry
     Harris-Foulkes estimate   =     -97.62740493 Ry
     estimated scf accuracy    <       0.00000727 Ry

     iteration # 17     ecut=   100.00 Ry     beta=0.70
     CG style diagonalization
     ethr =  1.06E-08,  avg # of iterations =  3.0

     total cpu time spent up to now is      834.3 secs

     total energy              =     -97.62740515 Ry
     Harris-Foulkes estimate   =     -97.62740497 Ry
     estimated scf accuracy    <       0.00000729 Ry

     iteration # 18     ecut=   100.00 Ry     beta=0.70
     CG style diagonalization
     ethr =  1.06E-08,  avg # of iterations =  3.0

     total cpu time spent up to now is      846.5 secs

     total energy              =     -97.62740798 Ry
     Harris-Foulkes estimate   =     -97.62740520 Ry
     estimated scf accuracy    <       0.00000777 Ry

     iteration # 19     ecut=   100.00 Ry     beta=0.70
     CG style diagonalization
     ethr =  1.06E-08,  avg # of iterations =  3.2

     total cpu time spent up to now is      859.6 secs

     total energy              =     -97.62741060 Ry
     Harris-Foulkes estimate   =     -97.62740842 Ry
     estimated scf accuracy    <       0.00001592 Ry

     iteration # 20     ecut=   100.00 Ry     beta=0.70
     CG style diagonalization
     ethr =  1.06E-08,  avg # of iterations =  3.0

     total cpu time spent up to now is      871.8 secs

     total energy              =     -97.62739717 Ry
     Harris-Foulkes estimate   =     -97.62741085 Ry
     estimated scf accuracy    <       0.00002143 Ry

     iteration # 21     ecut=   100.00 Ry     beta=0.70
     CG style diagonalization
     ethr =  1.06E-08,  avg # of iterations =  4.7

     total cpu time spent up to now is      890.7 secs

     total energy              =     -97.62740256 Ry
     Harris-Foulkes estimate   =     -97.62740397 Ry
     estimated scf accuracy    <       0.00000404 Ry

     iteration # 22     ecut=   100.00 Ry     beta=0.70
     CG style diagonalization
     ethr =  9.62E-09,  avg # of iterations =  3.0

     total cpu time spent up to now is      903.0 secs

     total energy              =     -97.62740218 Ry
     Harris-Foulkes estimate   =     -97.62740281 Ry
     estimated scf accuracy    <       0.00000118 Ry

     iteration # 23     ecut=   100.00 Ry     beta=0.70
     CG style diagonalization
     ethr =  2.80E-09,  avg # of iterations =  4.3

     total cpu time spent up to now is      920.3 secs

     total energy              =     -97.62740284 Ry
     Harris-Foulkes estimate   =     -97.62740309 Ry
     estimated scf accuracy    <       0.00000058 Ry

     iteration # 24     ecut=   100.00 Ry     beta=0.70
     CG style diagonalization
     ethr =  1.39E-09,  avg # of iterations =  3.1

     total cpu time spent up to now is      932.9 secs

     total energy              =     -97.62740281 Ry
     Harris-Foulkes estimate   =     -97.62740289 Ry
     estimated scf accuracy    <       0.00000013 Ry

     iteration # 25     ecut=   100.00 Ry     beta=0.70
     CG style diagonalization
     ethr =  3.17E-10,  avg # of iterations =  4.9

     total cpu time spent up to now is      952.3 secs

     total energy              =     -97.62740293 Ry
     Harris-Foulkes estimate   =     -97.62740299 Ry
     estimated scf accuracy    <       0.00000018 Ry

     iteration # 26     ecut=   100.00 Ry     beta=0.70
     CG style diagonalization
     ethr =  3.17E-10,  avg # of iterations =  3.2

     total cpu time spent up to now is      965.3 secs

     total energy              =     -97.62740293 Ry
     Harris-Foulkes estimate   =     -97.62740294 Ry
     estimated scf accuracy    <       0.00000003 Ry

     iteration # 27     ecut=   100.00 Ry     beta=0.70
     CG style diagonalization
     ethr =  7.57E-11,  avg # of iterations =  4.2

     total cpu time spent up to now is      982.3 secs

     total energy              =     -97.62740295 Ry
     Harris-Foulkes estimate   =     -97.62740295 Ry
     estimated scf accuracy    <          8.1E-09 Ry

     iteration # 28     ecut=   100.00 Ry     beta=0.70
     CG style diagonalization
     ethr =  1.92E-11,  avg # of iterations =  3.5

     total cpu time spent up to now is      996.3 secs

     total energy              =     -97.62740295 Ry
     Harris-Foulkes estimate   =     -97.62740295 Ry
     estimated scf accuracy    <          5.5E-09 Ry

     iteration # 29     ecut=   100.00 Ry     beta=0.70
     CG style diagonalization
     ethr =  1.32E-11,  avg # of iterations =  3.0

     total cpu time spent up to now is     1008.6 secs

     total energy              =     -97.62740295 Ry
     Harris-Foulkes estimate   =     -97.62740295 Ry
     estimated scf accuracy    <          3.5E-09 Ry

     iteration # 30     ecut=   100.00 Ry     beta=0.70
     CG style diagonalization
     ethr =  8.35E-12,  avg # of iterations =  3.1

     total cpu time spent up to now is     1021.3 secs

     total energy              =     -97.62740295 Ry
     Harris-Foulkes estimate   =     -97.62740295 Ry
     estimated scf accuracy    <          1.8E-09 Ry

     iteration # 31     ecut=   100.00 Ry     beta=0.70
     CG style diagonalization
     ethr =  4.20E-12,  avg # of iterations =  3.7

     total cpu time spent up to now is     1036.3 secs

     total energy              =     -97.62740295 Ry
     Harris-Foulkes estimate   =     -97.62740295 Ry
     estimated scf accuracy    <          3.2E-10 Ry

     iteration # 32     ecut=   100.00 Ry     beta=0.70
     CG style diagonalization
     ethr =  7.52E-13,  avg # of iterations =  4.0

     total cpu time spent up to now is     1052.4 secs

     total energy              =     -97.62740295 Ry
     Harris-Foulkes estimate   =     -97.62740295 Ry
     estimated scf accuracy    <          1.8E-11 Ry

     iteration # 33     ecut=   100.00 Ry     beta=0.70
     CG style diagonalization
     ethr =  1.00E-13,  avg # of iterations =  4.3

     total cpu time spent up to now is     1069.7 secs

     total energy              =     -97.62740295 Ry
     Harris-Foulkes estimate   =     -97.62740295 Ry
     estimated scf accuracy    <          9.6E-11 Ry

     iteration # 34     ecut=   100.00 Ry     beta=0.70
     CG style diagonalization
     ethr =  1.00E-13,  avg # of iterations =  3.5

     total cpu time spent up to now is     1083.8 secs

     total energy              =     -97.62740295 Ry
     Harris-Foulkes estimate   =     -97.62740295 Ry
     estimated scf accuracy    <          1.1E-11 Ry

     iteration # 35     ecut=   100.00 Ry     beta=0.70
     CG style diagonalization
     ethr =  1.00E-13,  avg # of iterations =  3.1

     total cpu time spent up to now is     1096.6 secs

     End of self-consistent calculation

          k = 0.0000 0.0000 0.0000 ( 37541 PWs)   bands (ev):

    -9.9129  -9.7810  -7.3889  -7.2574  -7.1188  -4.3373  -3.2747  -1.9207
    -1.3267  -0.9623  -0.6845  -0.4671  -0.2971  -0.1771   0.8259   1.1192
     1.4643   1.7040   2.0296   2.1701   2.6645   3.2805   4.3675   4.5068
     4.6809

          k = 0.0000-0.0000 0.1468 ( 37540 PWs)   bands (ev):

    -9.9018  -9.7938  -7.3767  -7.2541  -7.1329  -4.3346  -3.2743  -1.9225
    -1.2994  -1.0428  -0.6574  -0.4475  -0.3942  -0.0608   0.8173   1.1092
     1.4677   1.7346   2.0258   2.1823   2.6258   3.3193   4.2260   4.5647
     4.6995

          k =-0.0000 0.0000-0.2937 ( 37566 PWs)   bands (ev):

    -9.8871  -9.8100  -7.3637  -7.2490  -7.1495  -4.3319  -3.2739  -1.9246
    -1.2362  -1.1542  -0.6091  -0.4825  -0.4232   0.0179   0.8088   1.0903
     1.4808   1.7690   2.0213   2.1868   2.5951   3.3522   4.1345   4.6075
     4.6195

          k =-0.0000 0.1689-0.0081 ( 37511 PWs)   bands (ev):

    -9.8879  -9.7114  -7.9831  -7.1906  -6.5850  -4.3199  -3.6408  -1.5974
    -1.3034  -0.9889  -0.7683  -0.5250  -0.2880  -0.0801   0.8442   1.2458
     1.4760   1.6684   1.8130   2.0928   2.5367   3.2371   4.5195   4.6317
     4.9003

          k = 0.0000 0.1689 0.1387 ( 37519 PWs)   bands (ev):

    -9.8822  -9.7183  -7.9817  -7.1908  -6.5845  -4.3167  -3.6414  -1.5965
    -1.3067  -1.0428  -0.7923  -0.4755  -0.2488  -0.0531   0.7714   1.3060
     1.4696   1.5995   1.8142   2.1339   2.5719   3.2547   4.5382   4.6841
     4.7923

          k =-0.0000 0.1689-0.3018 ( 37555 PWs)   bands (ev):

    -9.8736  -9.7286  -7.9806  -7.1851  -6.5906  -4.3121  -3.6418  -1.6043
    -1.2681  -1.1218  -0.7496  -0.5200  -0.1795  -0.0956   0.8060   1.2552
     1.5060   1.6296   1.7942   2.1833   2.5099   3.3251   4.4118   4.6668
     4.8154

          k =-0.0000 0.1689-0.1549 ( 37542 PWs)   bands (ev):

    -9.8800  -9.7209  -7.9819  -7.1850  -6.5911  -4.3153  -3.6412  -1.6042
    -1.2770  -1.0622  -0.7008  -0.5934  -0.2213  -0.1132   0.8881   1.1872
     1.5096   1.6918   1.8099   2.1339   2.4667   3.3094   4.4168   4.6601
     4.8601

          k =-0.0000 0.3377-0.0162 ( 37511 PWs)   bands (ev):

    -9.8497  -9.4829  -8.5874  -7.2513  -5.8582  -4.3944  -4.2177  -1.2769
    -1.1081  -0.9557  -0.7565  -0.6683  -0.4673   0.0937   0.7794   1.2749
     1.4409   1.7167   1.8580   1.9855   2.2677   3.1063   4.5875   4.8629
     5.2109

          k =-0.0000 0.3377 0.1306 ( 37506 PWs)   bands (ev):

    -9.8482  -9.4848  -8.5872  -7.2530  -5.8537  -4.3826  -4.2289  -1.2323
    -1.1579  -1.0218  -0.8352  -0.6014  -0.3840   0.0872   0.8413   1.2937
     1.4902   1.6579   1.7854   1.9120   2.3147   3.1307   4.6223   4.8796
     5.1481

          k =-0.0000 0.3377-0.3099 ( 37514 PWs)   bands (ev):

    -9.8457  -9.4885  -8.5871  -7.2509  -5.8562  -4.3523  -4.2542  -1.3107
    -1.1015  -0.9887  -0.8559  -0.5811  -0.4259   0.0714   0.9375   1.2549
     1.5243   1.6039   1.8022   1.9523   2.2597   3.1843   4.5333   4.8313
     5.1952

          k =-0.0000 0.3377-0.1630 ( 37524 PWs)   bands (ev):

    -9.8472  -9.4865  -8.5873  -7.2492  -5.8607  -4.3693  -4.2378  -1.3316
    -1.0660  -0.9150  -0.8187  -0.6180  -0.5132   0.0783   0.8446   1.2644
     1.5010   1.6640   1.8328   2.0414   2.2081   3.1681   4.4739   4.9024
     5.1834

          k = 0.0000-0.5066 0.0243 ( 37474 PWs)   bands (ev):

    -9.8329  -9.1321  -9.0655  -7.2823  -5.1634  -5.0557  -4.2322  -1.2944
    -0.9982  -0.8884  -0.6748  -0.6045  -0.3878  -0.2213   0.8387   1.0602
     1.6160   1.8078   1.9037   2.0128   2.1360   2.9966   4.5422   4.9147
     5.3684

          k = 0.0000-0.5066 0.1711 ( 37531 PWs)   bands (ev):

    -9.8321  -9.1330  -9.0661  -7.2831  -5.1613  -5.0480  -4.2373  -1.2952
    -1.0391  -0.8687  -0.7337  -0.5779  -0.3887  -0.2143   0.9830   1.1279
     1.5911   1.7414   1.8330   1.9696   2.1216   3.0310   4.4686   4.8972
     5.4581

          k = 0.0000-0.5066-0.2694 ( 37502 PWs)   bands (ev):

    -9.8313  -9.1338  -9.0666  -7.2840  -5.1592  -5.0402  -4.2425  -1.2931
    -1.0667  -0.9211  -0.6591  -0.6185  -0.3977  -0.2083   1.1947   1.2166
     1.4787   1.6836   1.7720   1.9046   2.1069   3.0653   4.4375   4.8425
     5.5940

          k = 0.1425-0.0146 0.0658 ( 37536 PWs)   bands (ev):

    -9.9010  -9.7775  -7.3764  -7.2736  -7.1364  -4.3535  -3.2708  -1.9464
    -1.2557  -1.0861  -0.7106  -0.5695  -0.3294   0.0067   0.8384   1.0474
     1.5596   1.6486   2.0716   2.1567   2.7360   3.3058   4.2935   4.5851
     4.8780

          k = 0.1425-0.0146 0.2126 ( 37529 PWs)   bands (ev):

    -9.8861  -9.7943  -7.3627  -7.2738  -7.1477  -4.3515  -3.2686  -1.9439
    -1.2509  -1.1437  -0.6905  -0.4838  -0.4657   0.1018   0.8110   1.0420
     1.5731   1.6951   2.0202   2.1920   2.7042   3.3880   4.1307   4.6072
     4.8011

          k = 0.1425-0.0146-0.2279 ( 37532 PWs)   bands (ev):

    -9.8858  -9.7945  -7.3654  -7.2856  -7.1314  -4.3559  -3.2671  -1.9409
    -1.3249  -1.0491  -0.6972  -0.5758  -0.3943   0.1118   0.7939   1.0808
     1.5615   1.6994   2.0601   2.1905   2.6727   3.3390   4.1041   4.4935
     4.7627

          k = 0.1425-0.0146-0.0811 ( 37513 PWs)   bands (ev):

    -9.9008  -9.7776  -7.3795  -7.2833  -7.1218  -4.3579  -3.2693  -1.9433
    -1.3185  -0.9954  -0.7149  -0.6226  -0.3127   0.0246   0.8160   1.0888
     1.5491   1.6586   2.0949   2.1687   2.7014   3.2518   4.2668   4.5456
     4.7285

          k = 0.1425 0.1543 0.0577 ( 37523 PWs)   bands (ev):

    -9.8818  -9.7072  -7.9719  -7.1875  -6.6054  -4.3348  -3.6780  -1.5874
    -1.3381  -1.0209  -0.8255  -0.5497  -0.3038  -0.0346   0.8402   1.2599
     1.5412   1.6388   1.8266   2.1883   2.6301   3.2524   4.6242   4.7334
     4.9468

          k = 0.1425 0.1543 0.2045 ( 37525 PWs)   bands (ev):

    -9.8726  -9.7183  -7.9702  -7.1833  -6.6100  -4.3294  -3.6786  -1.5915
    -1.3480  -1.0695  -0.7748  -0.5535  -0.3027  -0.0048   0.7954   1.2107
     1.5705   1.6605   1.8070   2.2397   2.6532   3.3193   4.5351   4.7746
     4.8484

          k = 0.1425 0.1543-0.2360 ( 37543 PWs)   bands (ev):

    -9.8712  -9.7200  -7.9713  -7.1806  -6.6100  -4.3341  -3.6775  -1.5817
    -1.3610  -1.0444  -0.7096  -0.6585  -0.2820  -0.0449   0.8665   1.1719
     1.5984   1.7088   1.7954   2.2331   2.5991   3.3164   4.4304   4.7730
     4.8528

          k = 0.1425 0.1543-0.0892 ( 37504 PWs)   bands (ev):

    -9.8805  -9.7088  -7.9730  -7.1848  -6.6054  -4.3395  -3.6770  -1.5753
    -1.3590  -0.9621  -0.8279  -0.6129  -0.2935  -0.0617   0.9016   1.2280
     1.5734   1.6688   1.8250   2.1830   2.5755   3.2521   4.4871   4.8048
     4.9335

          k = 0.1425 0.3231 0.0496 ( 37501 PWs)   bands (ev):

    -9.8464  -9.4811  -8.5722  -7.2462  -5.8699  -4.4239  -4.2521  -1.3131
    -1.1198  -1.0392  -0.8592  -0.6173  -0.4763   0.1172   0.9198   1.3787
     1.5013   1.6777   1.8310   2.0090   2.3027   3.1106   4.8166   4.9805
     5.2136

          k = 0.1425 0.3231 0.1964 ( 37518 PWs)   bands (ev):

    -9.8435  -9.4853  -8.5717  -7.2454  -5.8707  -4.4086  -4.2608  -1.3150
    -1.1723  -1.0651  -0.8477  -0.6044  -0.4091   0.1000   0.9580   1.2721
     1.4998   1.7443   1.8368   1.9724   2.3485   3.1564   4.7620   4.8615
     5.2846

          k = 0.1425 0.3231-0.2441 ( 37530 PWs)   bands (ev):

    -9.8428  -9.4863  -8.5721  -7.2429  -5.8729  -4.4061  -4.2649  -1.3420
    -1.1514  -0.9737  -0.8266  -0.6454  -0.4867   0.0663   0.9365   1.2754
     1.5683   1.6687   1.8682   2.0522   2.3629   3.1703   4.7370   4.8039
     5.2283

          k = 0.1425 0.3231-0.0973 ( 37549 PWs)   bands (ev):

    -9.8457  -9.4820  -8.5727  -7.2438  -5.8721  -4.4219  -4.2557  -1.3382
    -1.1014  -0.9396  -0.7958  -0.7104  -0.5507   0.0823   0.9023   1.4055
     1.4873   1.7002   1.8356   2.0695   2.3174   3.1271   4.7309   4.9567
     5.2398

          k = 0.1426-0.5212 0.0901 ( 37539 PWs)   bands (ev):

    -9.8287  -9.1253  -9.0594  -7.2790  -5.1834  -5.0724  -4.2595  -1.3314
    -1.0712  -0.9244  -0.7799  -0.6180  -0.3108  -0.1815   1.0066   1.2462
     1.5714   1.7351   1.8820   2.0543   2.1105   3.0278   4.6509   4.9645
     5.4365

          k = 0.1426-0.5212 0.2369 ( 37527 PWs)   bands (ev):

    -9.8277  -9.1263  -9.0603  -7.2799  -5.1803  -5.0668  -4.2601  -1.3584
    -1.0466  -1.0271  -0.7378  -0.6109  -0.3075  -0.1584   1.1894   1.3510
     1.4900   1.5755   1.8614   2.0036   2.1052   3.0638   4.6000   4.8707
     5.5128

          k = 0.1425-0.5212-0.2036 ( 37532 PWs)   bands (ev):

    -9.8276  -9.1260  -9.0609  -7.2793  -5.1758  -5.0741  -4.2576  -1.3046
    -1.1231  -0.9552  -0.7930  -0.5978  -0.3243  -0.1736   1.1410   1.2461
     1.5099   1.7730   1.8580   1.9882   2.1479   3.0548   4.5430   4.8492
     5.5952

          k = 0.1426-0.5212-0.0568 ( 37508 PWs)   bands (ev):

    -9.8286  -9.1250  -9.0600  -7.2784  -5.1789  -5.0797  -4.2571  -1.2826
    -1.0566  -0.9869  -0.7475  -0.6498  -0.3222  -0.1976   0.9889   1.1791
     1.6012   1.8256   1.9027   2.0282   2.1674   3.0242   4.5818   4.9468
     5.4629

          k = 0.1426-0.3523 0.0820 ( 37509 PWs)   bands (ev):

    -9.8426  -9.4686  -8.5969  -7.2507  -5.8888  -4.3712  -4.2515  -1.4080
    -1.0558  -0.9170  -0.7953  -0.6806  -0.4431   0.0156   0.8962   1.3512
     1.4243   1.7815   1.8570   1.9628   2.2717   3.1672   4.4161   4.9618
     5.2280

          k = 0.1426-0.3523 0.2288 ( 37489 PWs)   bands (ev):

    -9.8406  -9.4711  -8.5975  -7.2510  -5.8860  -4.3335  -4.2850  -1.4689
    -1.0151  -0.9562  -0.8025  -0.6342  -0.4378   0.0031   1.0149   1.3610
     1.4618   1.6607   1.8043   1.9430   2.2841   3.2054   4.4520   4.9528
     5.1799

          k = 0.1425-0.3523-0.2117 ( 37501 PWs)   bands (ev):

    -9.8410  -9.4704  -8.5975  -7.2528  -5.8822  -4.3632  -4.2572  -1.4280
    -1.0871  -0.9739  -0.7628  -0.7014  -0.3463  -0.0082   1.0323   1.3141
     1.4664   1.6899   1.7680   1.9477   2.3277   3.1680   4.5153   4.9245
     5.1439

          k = 0.1425-0.3523-0.0649 ( 37494 PWs)   bands (ev):

    -9.8430  -9.4680  -8.5969  -7.2525  -5.8850  -4.3884  -4.2361  -1.3473
    -1.1344  -0.9290  -0.8215  -0.7014  -0.3530   0.0090   0.9088   1.3153
     1.4342   1.7159   1.8749   1.9950   2.3202   3.1257   4.4537   4.9747
     5.2251

[...]
    -1.3872  -1.2428  -0.9297  -0.7613  -0.4296  -0.2351   0.7508   0.9777
     1.3530   1.5495   1.6239   1.9089   2.3725   3.0895   4.0460   4.4080
     4.6329

          k = 0.1411-0.1809 0.2167 ( 39239 PWs)   bands (ev):

   -10.0671  -9.8143  -8.1342  -7.3832  -6.7600  -4.5053  -3.8012  -1.7871
    -1.4723  -1.1891  -0.9310  -0.7610  -0.4250  -0.2069   0.7070   1.0479
     1.3895   1.4739   1.6388   1.9055   2.3620   3.1423   4.0672   4.3382
     4.5862

          k = 0.1419-0.1818-0.2172 ( 39243 PWs)   bands (ev):

   -10.0674  -9.8138  -8.1343  -7.3861  -6.7558  -4.5083  -3.8000  -1.7910
    -1.4899  -1.1438  -0.9667  -0.7525  -0.4542  -0.1475   0.6541   1.1195
     1.3551   1.4390   1.6518   1.9127   2.4051   3.0767   4.0664   4.2791
     4.6126

          k = 0.1416-0.1815-0.0726 ( 39260 PWs)   bands (ev):

   -10.0710  -9.8092  -8.1346  -7.3875  -6.7559  -4.5111  -3.8002  -1.7966
    -1.4121  -1.1971  -0.9559  -0.7547  -0.4640  -0.1690   0.6793   1.0613
     1.3408   1.4802   1.6639   1.8983   2.4245   3.0275   4.0429   4.3995
     4.6008

          k = 0.2821-0.0291 0.1289 ( 39229 PWs)   bands (ev):

   -10.0706  -9.8707  -7.5101  -7.4648  -7.3499  -4.5647  -3.4444  -2.1087
    -1.4561  -1.2407  -1.0339  -0.7412  -0.6055   0.0236   0.6716   0.8013
     1.3222   1.5938   1.8835   2.0875   2.6062   3.2070   3.9932   4.4507
     4.6587

          k = 0.2818-0.0288 0.2735 ( 39244 PWs)   bands (ev):

   -10.0680  -9.8738  -7.5090  -7.4800  -7.3334  -4.5681  -3.4409  -2.1022
    -1.5060  -1.2549  -0.9372  -0.7759  -0.6299   0.0443   0.6152   0.8655
     1.3372   1.6160   1.8769   2.0994   2.5684   3.2268   3.8548   4.3688
     4.6282

          k = 0.2826-0.0297-0.1604 ( 39242 PWs)   bands (ev):

   -10.0703  -9.8710  -7.5062  -7.4871  -7.3293  -4.5704  -3.4429  -2.1081
    -1.4853  -1.2130  -0.9690  -0.8701  -0.5496   0.0439   0.6260   0.8720
     1.3852   1.5332   1.9412   2.0739   2.5654   3.1147   3.9199   4.3734
     4.5433

          k = 0.2823-0.0294-0.0157 ( 39235 PWs)   bands (ev):

   -10.0729  -9.8680  -7.5082  -7.4721  -7.3447  -4.5670  -3.4463  -2.1147
    -1.4211  -1.2206  -1.0536  -0.8393  -0.5245   0.0215   0.6838   0.8060
     1.3788   1.5133   1.9263   2.0678   2.6108   3.0984   4.1391   4.2922
     4.6304

          k = 0.2817 0.1376 0.1213 ( 39267 PWs)   bands (ev):

   -10.0609  -9.7980  -8.1129  -7.3780  -6.7997  -4.5461  -3.8761  -1.7484
    -1.5646  -1.2000  -0.9609  -0.8466  -0.5067  -0.1809   0.7623   0.9767
     1.3647   1.5853   1.6535   2.1736   2.5384   3.1410   4.3330   4.4496
     4.8161

          k = 0.2814 0.1379 0.2659 ( 39243 PWs)   bands (ev):

   -10.0586  -9.8009  -8.1137  -7.3766  -6.7978  -4.5501  -3.8746  -1.7322
    -1.5969  -1.1850  -0.9128  -0.8757  -0.5216  -0.1891   0.7412   0.9422
     1.4372   1.5214   1.7132   2.2044   2.5245   3.1762   4.1623   4.6027
     4.7216

          k = 0.2823 0.1369-0.1680 ( 39247 PWs)   bands (ev):

   -10.0604  -9.7986  -8.1146  -7.3770  -6.7956  -4.5565  -3.8744  -1.7329
    -1.5282  -1.2345  -0.9938  -0.8274  -0.4979  -0.2288   0.8184   1.0012
     1.4068   1.4728   1.7472   2.1739   2.4833   3.1280   4.1430   4.6045
     4.7284

          k = 0.2820 0.1372-0.0234 ( 39246 PWs)   bands (ev):

   -10.0625  -9.7958  -8.1138  -7.3784  -6.7975  -4.5525  -3.8759  -1.7479
    -1.4769  -1.2789  -1.0089  -0.8195  -0.4844  -0.2222   0.8525   1.0273
     1.3426   1.5147   1.6899   2.1496   2.4984   3.0961   4.2359   4.5413
     4.8540

          k = 0.2814 0.3042 0.1136 ( 39209 PWs)   bands (ev):

   -10.0382  -9.5744  -8.6929  -7.4246  -6.0721  -4.6161  -4.4875  -1.5487
    -1.3700  -1.2315  -0.9989  -0.8353  -0.6086  -0.0915   0.9053   1.1752
     1.3412   1.4899   1.7394   2.0129   2.2382   2.9777   4.4567   4.8078
     5.0063

          k = 0.2811 0.3045 0.2583 ( 39200 PWs)   bands (ev):

   -10.0371  -9.5759  -8.6932  -7.4235  -6.0711  -4.6156  -4.4888  -1.5884
    -1.3510  -1.2026  -0.9839  -0.8187  -0.6060  -0.1423   0.8589   1.0186
     1.4215   1.5373   1.8189   2.0547   2.2486   3.0192   4.4519   4.7776
     4.9403

          k = 0.2820 0.3036-0.1756 ( 39244 PWs)   bands (ev):

   -10.0379  -9.5746  -8.6937  -7.4234  -6.0693  -4.6151  -4.4980  -1.5780
    -1.2973  -1.0860  -1.0210  -0.8837  -0.7434  -0.1327   0.8834   1.1325
     1.3623   1.5689   1.8148   2.0170   2.2334   3.0240   4.5932   4.7883
     4.8764

          k = 0.2817 0.3039-0.0310 ( 39237 PWs)   bands (ev):

   -10.0390  -9.5731  -8.6935  -7.4244  -6.0703  -4.6156  -4.4967  -1.5405
    -1.3080  -1.1640  -0.9838  -0.9050  -0.7471  -0.0858   0.9877   1.2012
     1.3739   1.4592   1.7243   2.0111   2.1952   2.9894   4.5574   4.7938
     5.0005

          k = 0.2830-0.5291 0.1517 ( 39206 PWs)   bands (ev):

   -10.0254  -9.2152  -9.1782  -7.4527  -5.3845  -5.2786  -4.4872  -1.5295
    -1.3079  -1.2007  -1.0593  -0.7742  -0.4276  -0.2713   1.0514   1.2820
     1.3467   1.5119   1.6919   1.8442   2.0597   2.9458   4.4735   4.7413
     5.1306

          k = 0.2827-0.5288 0.2963 ( 39216 PWs)   bands (ev):

   -10.0249  -9.2154  -9.1789  -7.4525  -5.3808  -5.2831  -4.4819  -1.5214
    -1.3653  -1.2094  -0.9854  -0.7911  -0.4582  -0.2540   1.0601   1.1418
     1.4182   1.5188   1.7312   1.9507   2.0316   2.9385   4.3544   4.6655
     5.2150

          k = 0.2836-0.5297-0.1375 ( 39219 PWs)   bands (ev):

   -10.0253  -9.2149  -9.1788  -7.4522  -5.3812  -5.2829  -4.4882  -1.4362
    -1.3402  -1.2077  -1.0018  -0.8907  -0.4717  -0.2871   0.9957   1.2289
     1.4422   1.5848   1.7423   1.9342   2.0356   2.9152   4.3627   4.7587
     5.0962

          k = 0.2833-0.5294 0.0071 ( 39197 PWs)   bands (ev):

   -10.0258  -9.2147  -9.1781  -7.4524  -5.3849  -5.2784  -4.4935  -1.4364
    -1.3229  -1.1556  -1.0661  -0.8963  -0.4411  -0.3053   1.0730   1.2264
     1.3903   1.6140   1.7117   1.8615   2.0219   2.9249   4.5211   4.7798
     5.0474

          k = 0.2827-0.3624 0.1441 ( 39195 PWs)   bands (ev):

   -10.0352  -9.5565  -8.7240  -7.4332  -6.0877  -4.5355  -4.5062  -1.6622
    -1.1724  -1.1407  -1.0204  -0.8729  -0.6404  -0.1668   0.9434   1.1749
     1.3361   1.5485   1.6502   1.9018   2.1782   3.0645   4.2333   4.8011
     4.8522

          k = 0.2824-0.3621 0.2887 ( 39197 PWs)   bands (ev):

   -10.0347  -9.5571  -8.7244  -7.4336  -6.0865  -4.5524  -4.4840  -1.6914
    -1.1943  -1.0987  -1.0700  -0.8646  -0.5930  -0.1678   1.0155   1.1865
     1.2839   1.4364   1.7476   1.8383   2.2455   3.0350   4.3204   4.6374
     4.9416

          k = 0.2833-0.3630-0.1451 ( 39218 PWs)   bands (ev):

   -10.0352  -9.5567  -8.7235  -7.4337  -6.0876  -4.5680  -4.4713  -1.5946
    -1.2459  -1.1467  -1.0776  -0.9091  -0.5599  -0.1584   0.9872   1.1570
     1.3029   1.5918   1.6720   1.8640   2.2481   2.9851   4.2173   4.7267
     4.9479

          k = 0.2830-0.3627-0.0005 ( 39199 PWs)   bands (ev):

   -10.0357  -9.5562  -8.7232  -7.4333  -6.0888  -4.5594  -4.4851  -1.5395
    -1.3019  -1.1444  -0.9947  -0.9443  -0.6075  -0.1564   0.9311   1.1612
     1.3464   1.5847   1.7164   1.8931   2.1673   3.0187   4.1572   4.7716
     4.9547

          k = 0.2824-0.1958 0.1365 ( 39196 PWs)   bands (ev):

   -10.0575  -9.7896  -8.1442  -7.3854  -6.7932  -4.5490  -3.8038  -1.8105
    -1.5211  -1.2027  -0.9551  -0.8006  -0.4899  -0.2077   0.7140   1.0332
     1.3745   1.5672   1.7427   1.9660   2.4677   3.1716   4.0574   4.4473
     4.6614

          k = 0.2821-0.1955 0.2811 ( 39223 PWs)   bands (ev):

   -10.0562  -9.7912  -8.1445  -7.3868  -6.7899  -4.5482  -3.8022  -1.8302
    -1.5676  -1.1324  -0.9394  -0.8278  -0.5051  -0.1690   0.6570   1.1379
     1.3705   1.5772   1.6306   1.9760   2.5152   3.1472   4.1698   4.2736
     4.7605

          k = 0.2830-0.1964-0.1527 ( 39228 PWs)   bands (ev):

   -10.0576  -9.7896  -8.1436  -7.3879  -6.7904  -4.5496  -3.8033  -1.8381
    -1.5128  -1.1498  -0.9926  -0.8194  -0.5127  -0.1430   0.7031   1.0729
     1.4173   1.5269   1.6770   1.9575   2.5389   3.0938   4.0595   4.3838
     4.7731

          k = 0.2827-0.1961-0.0081 ( 39215 PWs)   bands (ev):

   -10.0589  -9.7880  -8.1433  -7.3864  -6.7937  -4.5504  -3.8049  -1.8209
    -1.4220  -1.2758  -0.9931  -0.7951  -0.4951  -0.1816   0.7827   0.9604
     1.4063   1.5359   1.7473   1.9694   2.4963   3.1121   3.9978   4.4982
     4.7401

          k = 0.4231-0.0437 0.1933 ( 39244 PWs)   bands (ev):

   -10.0597  -9.8537  -7.5447  -7.4782  -7.3364  -4.6002  -3.4250  -2.1231
    -1.5346  -1.3155  -0.9752  -0.7321  -0.6691   0.0446   0.5849   0.8681
     1.2070   1.7433   1.8740   2.2560   2.5423   3.2977   3.9266   4.7147
     4.8112

          k = 0.4228-0.0433 0.3379 ( 39237 PWs)   bands (ev):

   -10.0597  -9.8538  -7.5418  -7.4815  -7.3355  -4.6014  -3.4261  -2.1262
    -1.5279  -1.2979  -0.9677  -0.8406  -0.5979   0.0674   0.5848   0.8646
     1.2532   1.6725   1.9101   2.2520   2.5345   3.2544   3.9449   4.6263
     4.8186

          k = 0.4237-0.0443-0.0959 ( 39227 PWs)   bands (ev):

   -10.0610  -9.8524  -7.5310  -7.4760  -7.3534  -4.5994  -3.4314  -2.1374
    -1.4821  -1.2236  -1.0666  -0.9142  -0.5455   0.1077   0.6382   0.8028
     1.3296   1.5424   1.9341   2.2201   2.5876   3.1995   4.1537   4.5046
     4.6570

          k = 0.4234-0.0440 0.0487 ( 39239 PWs)   bands (ev):

   -10.0610  -9.8524  -7.5345  -7.4715  -7.3547  -4.5982  -3.4303  -2.1343
    -1.4963  -1.2276  -1.0816  -0.8542  -0.5664   0.0842   0.6402   0.7992
     1.2749   1.6059   1.9156   2.2282   2.5964   3.2367   4.1214   4.5702
     4.6869

          k = 0.4228 0.1230 0.1857 ( 39249 PWs)   bands (ev):

   -10.0502  -9.7791  -8.1281  -7.3807  -6.8232  -4.5803  -3.8630  -1.7502
    -1.6663  -1.1802  -0.9583  -0.8747  -0.5258  -0.2094   0.7095   0.9999
     1.3880   1.5836   1.7111   2.3273   2.5177   3.2482   4.2407   4.6571
     4.9787

          k = 0.4225 0.1233 0.3303 ( 39244 PWs)   bands (ev):

   -10.0502  -9.7791  -8.1290  -7.3804  -6.8206  -4.5878  -3.8625  -1.7360
    -1.6103  -1.2642  -0.9774  -0.8364  -0.5331  -0.2308   0.7553   1.0058
     1.3835   1.5165   1.8225   2.3467   2.4410   3.2257   4.1780   4.6904
     4.8981

          k = 0.4233 0.1224-0.1035 ( 39259 PWs)   bands (ev):

   -10.0513  -9.7778  -8.1277  -7.3800  -6.8235  -4.5869  -3.8650  -1.7415
    -1.4614  -1.4240  -1.0145  -0.8061  -0.5313  -0.2277   0.9042   1.0124
     1.3215   1.4582   1.8186   2.3432   2.4313   3.1929   4.2149   4.6334
     4.8622

          k = 0.4230 0.1227 0.0411 ( 39254 PWs)   bands (ev):

   -10.0513  -9.7778  -8.1268  -7.3803  -6.8261  -4.5794  -3.8655  -1.7556
    -1.5990  -1.2569  -0.9976  -0.8550  -0.5066  -0.2156   0.8397   1.0215
     1.3241   1.5407   1.6967   2.3376   2.4958   3.2127   4.3571   4.5087
     4.9415

          k = 0.4224 0.2897 0.1781 ( 39201 PWs)   bands (ev):

   -10.0295  -9.5548  -8.6976  -7.4225  -6.1119  -4.6291  -4.5163  -1.6701
    -1.3498  -1.1918  -1.0383  -0.8797  -0.5988  -0.1306   0.8748   1.0938
     1.4154   1.5485   1.8464   2.1385   2.3989   3.1010   4.4175   4.7721
     4.9750

          k = 0.4221 0.2900 0.3227 ( 39218 PWs)   bands (ev):

   -10.0296  -9.5546  -8.6980  -7.4224  -6.1083  -4.6268  -4.5283  -1.6669
    -1.2931  -1.1536  -1.0300  -0.8973  -0.7050  -0.1451   0.8902   1.0428
     1.3899   1.7088   1.8616   2.1288   2.3232   3.1469   4.5950   4.7021
     4.9723

          k = 0.4230 0.2890-0.1112 ( 39234 PWs)   bands (ev):

   -10.0302  -9.5538  -8.6976  -7.4226  -6.1087  -4.6134  -4.5465  -1.5715
    -1.3329  -1.1507  -1.0334  -0.9208  -0.8203  -0.1109   1.0252   1.1938
     1.3246   1.5981   1.8593   2.1268   2.2623   3.1096   4.5473   4.7120
     5.0284

          k = 0.4227 0.2893 0.0335 ( 39252 PWs)   bands (ev):

   -10.0302  -9.5539  -8.6972  -7.4227  -6.1124  -4.6183  -4.5319  -1.5639
    -1.4107  -1.1621  -1.0302  -0.9796  -0.6704  -0.0932   1.0590   1.1658
     1.3968   1.4868   1.7666   2.1651   2.3166   3.0634   4.4392   4.7453
     5.0111

          k = 0.4240-0.5436 0.2162 ( 39198 PWs)   bands (ev):

   -10.0185  -9.2042  -9.1677  -7.4462  -5.4152  -5.3228  -4.5159  -1.5446
    -1.4455  -1.2506  -1.0432  -0.7751  -0.4787  -0.2222   0.9779   1.2144
     1.4459   1.5487   1.8590   2.0521   2.2494   3.0535   4.2602   4.8100
     5.2090

          k = 0.4237-0.5433 0.3608 ( 39246 PWs)   bands (ev):

   -10.0185  -9.2041  -9.1678  -7.4461  -5.4153  -5.3211  -4.5203  -1.5039
    -1.4298  -1.2482  -1.0436  -0.8492  -0.4939  -0.2362   1.0058   1.2201
     1.4492   1.6154   1.9449   2.0183   2.1581   3.0469   4.3171   4.7341
     5.2130

          k = 0.4246-0.5443-0.0731 ( 39229 PWs)   bands (ev):

   -10.0189  -9.2038  -9.1672  -7.4463  -5.4171  -5.3139  -4.5339  -1.4454
    -1.3036  -1.2296  -1.1410  -1.0046  -0.4602  -0.2792   1.0744   1.3737
     1.4288   1.6919   1.8670   1.9634   2.0522   3.0348   4.5749   4.7009
     5.1281

          k = 0.4243-0.5439 0.0715 ( 39240 PWs)   bands (ev):

   -10.0189  -9.2040  -9.1671  -7.4464  -5.4169  -5.3157  -4.5295  -1.4949
    -1.3327  -1.2371  -1.1482  -0.8940  -0.4506  -0.2655   1.0816   1.2848
     1.4295   1.6820   1.8032   1.9681   2.1341   3.0441   4.4790   4.8869
     5.0166

          k = 0.4237-0.3770 0.2085 ( 39230 PWs)   bands (ev):

   -10.0284  -9.5461  -8.7122  -7.4269  -6.1165  -4.6007  -4.5197  -1.7215
    -1.2581  -1.1431  -1.0000  -0.9390  -0.6558  -0.1378   0.9109   1.1184
     1.3517   1.5997   1.8123   2.0719   2.3415   3.1530   4.3849   4.7556
     4.9403

          k = 0.4234-0.3767 0.3532 ( 39248 PWs)   bands (ev):

   -10.0284  -9.5463  -8.7115  -7.4268  -6.1191  -4.6019  -4.5146  -1.6730
    -1.3004  -1.1508  -1.0357  -0.9857  -0.6134  -0.1171   1.0244   1.1093
     1.3869   1.4820   1.8279   2.0884   2.3472   3.0919   4.3284   4.7056
     5.0301

          k = 0.4243-0.3776-0.0807 ( 39224 PWs)   bands (ev):

   -10.0289  -9.5460  -8.7109  -7.4267  -6.1186  -4.5866  -4.5387  -1.5194
    -1.3990  -1.1387  -1.0880  -0.9793  -0.6805  -0.1110   1.0903   1.1357
     1.3559   1.6017   1.7826   2.0645   2.2880   3.0802   4.3037   4.7655
     4.9799

          k = 0.4240-0.3773 0.0639 ( 39237 PWs)   bands (ev):

   -10.0288  -9.5458  -8.7116  -7.4269  -6.1160  -4.5827  -4.5465  -1.6287
    -1.2700  -1.1583  -1.0360  -0.9384  -0.7326  -0.1350   0.9996   1.1102
     1.3665   1.6478   1.8107   2.0894   2.2387   3.1394   4.3599   4.7740
     4.9646

          k = 0.4234-0.2103 0.2009 ( 39209 PWs)   bands (ev):

   -10.0490  -9.7747  -8.1428  -7.3848  -6.8181  -4.5833  -3.8304  -1.7947
    -1.6215  -1.2115  -0.9343  -0.8494  -0.5202  -0.2238   0.6675   1.0726
     1.3535   1.5913   1.7433   2.2202   2.5033   3.2379   4.1594   4.6394
     4.8614

          k = 0.4231-0.2100 0.3455 ( 39233 PWs)   bands (ev):

   -10.0490  -9.7748  -8.1416  -7.3851  -6.8200  -4.5795  -3.8315  -1.8133
    -1.6218  -1.1759  -0.9583  -0.8693  -0.5127  -0.2004   0.6953   1.1123
     1.3445   1.5565   1.6830   2.2081   2.5610   3.2227   4.2326   4.5540
     4.8803

          k = 0.4240-0.2109-0.0883 ( 39234 PWs)   bands (ev):

   -10.0498  -9.7741  -8.1405  -7.3840  -6.8228  -4.5819  -3.8340  -1.7932
    -1.5252  -1.3141  -0.9898  -0.8261  -0.5284  -0.1970   0.8376   1.0086
     1.3624   1.4963   1.7665   2.1817   2.5498   3.1960   4.2049   4.5285
     4.7797

          k = 0.4237-0.2106 0.0563 ( 39217 PWs)   bands (ev):

   -10.0497  -9.7740  -8.1417  -7.3838  -6.8209  -4.5856  -3.8330  -1.7696
    -1.5337  -1.3301  -0.9861  -0.7995  -0.5392  -0.2200   0.7897   1.0175
     1.3178   1.5515   1.8455   2.1836   2.4886   3.2135   4.1416   4.5168
     4.9193

     the Fermi energy is     2.6280 ev

!    total energy              =     -97.63145186 Ry
     Harris-Foulkes estimate   =     -97.63145186 Ry
     estimated scf accuracy    <          3.2E-16 Ry

     The total energy is the sum of the following terms:

     one-electron contribution =     -31.31229902 Ry
     hartree contribution      =      29.15585860 Ry
     xc contribution           =     -27.77844915 Ry
     ewald contribution        =     -67.69673679 Ry
     smearing contrib. (-TS)   =       0.00017449 Ry

     convergence has been achieved in  33 iterations

     Forces acting on atoms (Ry/au):

     atom    1 type  1   force =    -0.00000229   -0.00000310    0.00000390
     atom    2 type  1   force =    -0.00000298    0.00000284    0.00000104
     atom    3 type  1   force =     0.00000209   -0.00000301   -0.00000578
     atom    4 type  1   force =    -0.00000258   -0.00000600    0.00000357
     atom    5 type  1   force =     0.00000594   -0.00000344   -0.00000675
     atom    6 type  1   force =    -0.00000485    0.00000001    0.00000176
     atom    7 type  1   force =    -0.00000120   -0.00000588    0.00000745
     atom    8 type  2   force =    -0.00000524    0.00000704   -0.00000252
     atom    9 type  2   force =     0.00000073    0.00000534   -0.00000011
     atom   10 type  2   force =    -0.00000175    0.00000613   -0.00000155
     atom   11 type  2   force =    -0.00000130   -0.00000196   -0.00000057
     atom   12 type  2   force =     0.00000228    0.00000009   -0.00000195
     atom   13 type  2   force =     0.00000159    0.00000292    0.00000275
     atom   14 type  2   force =     0.00000954   -0.00000100   -0.00000125

     Total force =     0.000025     Total SCF correction =     0.000000


     entering subroutine stress ...

          total   stress  (Ry/bohr**3)                   (kbar)     P=    0.00
  -0.00000001   0.00000002   0.00000001         -0.00      0.00      0.00
   0.00000002  -0.00000001  -0.00000001          0.00     -0.00     -0.00
   0.00000001  -0.00000001   0.00000003          0.00     -0.00      0.00


     Writing output data file NaP-GA-5oe5v6-1x32-vcr.save
 
     init_run     :     25.86s CPU     26.07s WALL (       2 calls)
     electrons    :  27065.90s CPU  27269.54s WALL (      88 calls)
     update_pot   :    129.33s CPU    134.13s WALL (      86 calls)
     forces       :    116.10s CPU    116.26s WALL (      88 calls)
     stress       :    255.77s CPU    255.82s WALL (      88 calls)

     Called by init_run:
     wfcinit      :     23.36s CPU     23.56s WALL (       2 calls)
     potinit      :      0.92s CPU      0.93s WALL (       2 calls)

     Called by electrons:
     c_bands      :  24348.16s CPU  24535.13s WALL (    1813 calls)
     sum_band     :   2656.17s CPU   2666.66s WALL (    1813 calls)
     v_of_rho     :     42.69s CPU     42.81s WALL (    1823 calls)
     mix_rho      :     15.70s CPU     15.56s WALL (    1813 calls)

     Called by c_bands:
     init_us_2    :    415.73s CPU    419.02s WALL (  327144 calls)
     ccgdiagg     :  19320.00s CPU  19481.51s WALL (  156029 calls)
     wfcrot       :   4672.16s CPU   4693.14s WALL (  141925 calls)

     Called by sum_band:

     Called by *cgdiagg:
     h_psi        :  20125.04s CPU  20279.18s WALL (10954617 calls)
     cdiaghg      :     37.54s CPU     38.29s WALL (  141925 calls)

     Called by h_psi:
     h_psi:pot    :  19966.45s CPU  20117.16s WALL (10954617 calls)
     h_psi:calbec :   1809.10s CPU   1820.36s WALL (10954617 calls)
     vloc_psi     :  17172.02s CPU  17305.60s WALL (10954617 calls)
     add_vuspsi   :    948.35s CPU    959.75s WALL (10954617 calls)
     h_1psi       :  15810.86s CPU  15941.48s WALL (10812692 calls)

     General routines
     calbec       :   2680.34s CPU   2706.71s WALL (21805149 calls)
     fft          :     23.10s CPU     23.24s WALL (   22407 calls)
     fftw         :  17056.58s CPU  17182.52s WALL (32642288 calls)
     davcio       :      0.03s CPU      0.07s WALL (     172 calls)
 
     Parallel routines
     fft_scatter  :   6216.12s CPU   6257.78s WALL (32664695 calls)
 
     PWSCF        :     7h40m CPU        7h44m WALL

 
   This run was terminated on:   0:47:31  22Sep2017            

=------------------------------------------------------------------------------=
   JOB DONE.
=------------------------------------------------------------------------------=
