 +-------------------------------------------------+
 |                                                 |
 |      CCC   AA    SSS  TTTTT  EEEEE  PPPP        |
 |     C     A  A  S       T    E      P   P       |
 |     C     AAAA   SS     T    EEE    PPPP        |
 |     C     A  A     S    T    E      P           |
 |      CCC  A  A  SSS     T    EEEEE  P           |
 |                                                 |
 +-------------------------------------------------+
 |                                                 |
 | Welcome to Academic Release CASTEP version 17.1 |          
 | Ab Initio Total Energy Program                  |
 |                                                 |
 | Authors:                                        |
 | M. Segall, M. Probert, C. Pickard, P. Hasnip,   |
 | S. Clark, K. Refson, J. R. Yates, M. Payne      |
 |                                                 |
 | Contributors:                                   |
 | P. Lindan, P. Haynes, J. White, V. Milman,      |
 | N. Govind, M. Gibson, P. Tulip, V. Cocula,      |
 | B. Montanari, D. Quigley, M. Glover,            |
 | L. Bernasconi, A. Perlov, M. Plummer,           |
 | E. McNellis, J. Meyer, J. Gale, D. Jochym       |
 | J. Aarons, B. Walker, R. Gillen, D. Jones       |
 | T. Green, I. J. Bush, C. J. Armstrong,          |
 | E. J. Higgins, E. L. Brown, M. S. McFly         |
 |                                                 |
 | Copyright (c) 2000 - 2015                       |
 |                                                 |
 |     Distributed under the terms of an           |
 |     Agreement between the United Kingdom        |
 |     Car-Parrinello (UKCP) Consortium,           |
 |     Daresbury Laboratory and Accelrys, Inc.     |
 |                                                 |
 | Please cite                                     |
 |                                                 |
 |     "First principles methods using CASTEP"     |
 |                                                 |
 |         Zeitschrift fuer Kristallographie       |
 |           220(5-6) pp. 567-570 (2005)           |
 |                                                 |
 | S. J. Clark, M. D. Segall, C. J. Pickard,       |
 | P. J. Hasnip, M. J. Probert, K. Refson,         |
 | M. C. Payne                                     |
 |                                                 |
 |       in all publications arising from          |
 |              your use of CASTEP                 |
 |                                                 |
 +-------------------------------------------------+
 
 
 Compiled for linux_x86_64_ifort15 on Mon, 19 Sep 2016 13:51:46 +0100
 from code version 282998e6ccfb+ PVM_AJM Sun, 18 Sep 2016 14:15:46 +0100
 Compiler: ; Optimisation: fast
 MATHLIBS: Intel MKL(11.1.3) (LAPACK version 3.4.1)
 FFT Lib : mkl
 Fundamental constants values: CODATA 2010
 
 Run started: Thu, 08 Dec 2016 03:42:05 +0000
 
 Pseudo atomic calculation performed for Se 4s2 4p4
 
 Converged in 19 iterations to a total energy of -254.9251 eV
 
 Calculation parallelised over 4 processes.
 Data is distributed by G-vector(2-way) and k-point(2-way)

 ************************************ Title ************************************
 

 ***************************** General Parameters ******************************
  
 output verbosity                               : normal  (1)
 write checkpoint data to                       : Se_CNT_bulk_cut-4qne5p-a_0.check
 type of calculation                            : geometry optimization
 stress calculation                             : on
 density difference calculation                 : off
 electron localisation func (ELF) calculation   : off
 Hirshfeld analysis                             : off
 unlimited duration calculation
 timing information                             : on
 memory usage estimate                          : on
 write final potential to formatted file        : off
 write final density to formatted file          : off
 write structure in CELL formatted file         : on
 write BibTeX reference list                    : off
 write OTFG pseudopotential files               : on
 checkpoint writing                             : off
  
 output         length unit                     : A
 output           mass unit                     : amu
 output           time unit                     : ps
 output         charge unit                     : e
 output           spin unit                     : hbar/2
 output         energy unit                     : eV
 output          force unit                     : eV/A
 output       velocity unit                     : A/ps
 output       pressure unit                     : GPa
 output     inv_length unit                     : 1/A
 output      frequency unit                     : cm-1
 output force constant unit                     : eV/A**2
 output         volume unit                     : A**3
 output   IR intensity unit                     : (D/A)**2/amu
 output         dipole unit                     : D
 output         efield unit                     : eV/A/e
 output        entropy unit                     : J/mol/K
  
 wavefunctions paging                           : none
 random number generator seed                   : randomised (34205608)
 data distribution                              : optimal for this architecture
 optimization strategy                          : maximize speed(+++)

 *********************** Exchange-Correlation Parameters ***********************
  
 using functional                               : Local Density Approximation
 relativistic treatment                         : Koelling-Harmon
 DFT+D: Semi-empirical dispersion correction    : off

 ************************* Pseudopotential Parameters **************************
  
 pseudopotential representation                 : reciprocal space
 <beta|phi> representation                      : reciprocal space
 spin-orbit coupling                            : off

 **************************** Basis Set Parameters *****************************
  
 plane wave basis set cut-off                   :   300.0000   eV
 size of standard grid                          :     1.7500
 size of   fine   gmax                          :    15.5288   1/A
 largest prime factor in FFT                    :          5
 finite basis set correction                    : none

 **************************** Electronic Parameters ****************************
  
 number of  electrons                           :  72.00    
 net charge of system                           :  0.000    
 treating system as non-spin-polarized
 number of bands                                :         47

 ********************* Electronic Minimization Parameters **********************
  
 Method: Treating system as metallic with density mixing treatment of electrons,
         and number of  SD  steps               :          1
         and number of  CG  steps               :          4
  
 total energy / atom convergence tol.           : 0.1000E-04   eV
 eigen-energy convergence tolerance             : 0.1000E-05   eV
 max force / atom convergence tol.              : ignored
 convergence tolerance window                   :          3   cycles
 max. number of SCF cycles                      :         50
 number of fixed-spin iterations                :         10
 smearing scheme                                : Gaussian
 smearing width                                 : 0.2000       eV
 Fermi energy convergence tolerance             : 0.2721E-13   eV
 periodic dipole correction                     : NONE

 ************************** Density Mixing Parameters **************************
  
 density-mixing scheme                          : Broyden
 max. length of mixing history                  :         20
 charge density mixing amplitude                : 0.8000    
 cut-off energy for mixing                      :  300.0       eV
 charge density mixing g-vector                 :  1.500       1/A

 *********************** Population Analysis Parameters ************************
  
 Population analysis with cutoff                :  3.000       A

 ********************** Geometry Optimization Parameters ***********************
  
 optimization method                            : TPSD
 variable cell method                           : fixed basis size
 max. number of steps                           :         20
 estimated bulk modulus                         :  500.0       GPa
 estimated <frequency>                          :  1668.       cm-1
 geom line minimiser                            : off
 max. no. of TPSD updates before BFGS           : unlimited
 total energy convergence tolerance             : 0.2000E-04   eV/atom
        max ionic |force| tolerance             : 0.5000E-01   eV/A
 max ionic |displacement| tolerance             : 0.1000E-02   A
   max |stress component| tolerance             : 0.1000       GPa
 convergence tolerance window                   :          2   steps
 backup results every                           : 2147483647   steps

 ******************************* Developer Code ********************************
  
 1D_STRESS_TENSOR : .TRUE.
 ADD_EXT_LOCPOT : "gaussian_cylinder"
 gaussian_cylinder_pot:
 V0 = 1
 radius =  4.69825
 broadening = 1
 centre = "0.5      0.5 0.0"
 axial = "0 0 1"
 :endgaussian_cylinder_pot

 *******************************************************************************
  
 
                           -------------------------------
                                      Unit Cell
                           -------------------------------
        Real Lattice(A)                      Reciprocal Lattice(1/A)
  14.3965000   0.0000000   0.0000000        0.4364384   0.0000000   0.0000000
   0.0000000  14.3965000   0.0000000        0.0000000   0.4364384   0.0000000
   0.0000000   0.0000000   8.5216900        0.0000000   0.0000000   0.7373168
 
                       Lattice parameters(A)       Cell Angles
                    a =   14.396500          alpha =   90.000000
                    b =   14.396500          beta  =   90.000000
                    c =    8.521690          gamma =   90.000000
 
                       Current cell volume = 1766.198756       A**3
 
                           -------------------------------
                                     Cell Contents
                           -------------------------------
                         Total number of ions in cell =   12
                      Total number of species in cell =    1
                        Max number of any one species =   12
 
            xxxxxxxxxxxxxxxxxxxxxxxxxxxxxxxxxxxxxxxxxxxxxxxxxxxxxxxxxxxx
            x  Element    Atom        Fractional coordinates of atoms  x
            x            Number           u          v          w      x
            x----------------------------------------------------------x
            x  Se           1         0.321953   0.500000   0.166667   x 
            x  Se           2         0.321953   0.500000   0.666667   x 
            x  Se           3         0.601215   0.500000   0.166667   x 
            x  Se           4         0.601215   0.500000   0.666667   x 
            x  Se           5         0.589023   0.345807   0.333333   x 
            x  Se           6         0.589023   0.345807   0.833333   x 
            x  Se           7         0.449392   0.587655   0.333333   x 
            x  Se           8         0.449392   0.587655   0.833333   x 
            x  Se           9         0.449392   0.412345   0.000000   x 
            x  Se          10         0.449392   0.412345   0.500000   x 
            x  Se          11         0.589023   0.654193   0.000000   x 
            x  Se          12         0.589023   0.654193   0.500000   x 
            xxxxxxxxxxxxxxxxxxxxxxxxxxxxxxxxxxxxxxxxxxxxxxxxxxxxxxxxxxxx
 
 
                         No user defined ionic velocities
 
                           -------------------------------
                                   Details of Species
                           -------------------------------
 
                               Mass of species in AMU
                                    Se   78.9600000
 
                          Electric Quadrupole Moment (Barn)
                                    Se    1.0000000 No Isotope Defined
 
                          Files used for pseudopotentials:
                                    Se ~/pspots/CASTEP/Se_00.usp
 
                           -------------------------------
                              k-Points For BZ Sampling
                           -------------------------------
                       MP grid size for SCF calculation is  1  1  4
                            with an offset of   0.000  0.000  0.000
                       Number of kpoints used =             2
 
                           -------------------------------
                               Symmetry and Constraints
                           -------------------------------
 
                      Cell is a supercell containing 2 primitive cells
                      Maximum deviation from symmetry =  0.00000         ANG
 
         There are no symmetry operations specified or generated for this cell
                      Number of ionic constraints     =           3
                      Point group of crystal =     1: C1, 1, 1
                      Space group of crystal =     3: P2, P 2y
 
 
                         Centre of mass is constrained
             Set iprint > 1 for details of linear ionic constraints
 
                         Number of cell constraints= 5
                         Cell constraints are:  0 0 3 0 0 0
 
                         External pressure/stress (GPa)
                          0.00000   0.00000   0.00000
                                    0.00000   0.00000
                                              0.00000
  
+---------------- MEMORY AND SCRATCH DISK ESTIMATES PER PROCESS --------------+
|                                                     Memory          Disk    |
| Baseline code, static data and system overhead      259.0 MB         0.0 MB |
| BLAS internal memory storage                          0.0 MB         0.0 MB |
| Model and support data                               83.9 MB         0.0 MB |
| Electronic energy minimisation requirements          42.4 MB         0.0 MB |
| Force calculation requirements                       13.8 MB         0.0 MB |
| Stress calculation requirements                      17.4 MB         0.0 MB |
|                                               ----------------------------- |
| Approx. total storage required per process          385.3 MB         0.0 MB |
|                                                                             |
| Requirements will fluctuate during execution and may exceed these estimates |
+-----------------------------------------------------------------------------+
------------------------------------------------------------------------ <-- SCF
SCF loop      Energy           Fermi           Energy gain       Timer   <-- SCF
                               energy          per atom          (sec)   <-- SCF
------------------------------------------------------------------------ <-- SCF
Initial   8.37317521E+001  0.00000000E+000                         1.68  <-- SCF
        * WARNING: Adding a cylindrically symmetric Gaussian confining potential
                   V0 =    1.00000 eV
                   Radius of the cylinder:  4.698 A
                   Broadening (FWHM):    1.00000 A
                   Axis parallel to    0.000    0.000    8.522 A
                   and passing through    7.198    7.198    0.000 A
      1  -2.70534735E+003  2.30326638E+000   2.32423258E+002       6.37  <-- SCF
        * WARNING: Adding a cylindrically symmetric Gaussian confining potential
                   V0 =    1.00000 eV
                   Radius of the cylinder:  4.698 A
                   Broadening (FWHM):    1.00000 A
                   Axis parallel to    0.000    0.000    8.522 A
                   and passing through    7.198    7.198    0.000 A
      2  -3.07741793E+003 -4.93618420E+000   3.10058823E+001       9.41  <-- SCF
        * WARNING: Adding a cylindrically symmetric Gaussian confining potential
                   V0 =    1.00000 eV
                   Radius of the cylinder:  4.698 A
                   Broadening (FWHM):    1.00000 A
                   Axis parallel to    0.000    0.000    8.522 A
                   and passing through    7.198    7.198    0.000 A
      3  -3.10035107E+003 -4.79187963E+000   1.91109449E+000      12.15  <-- SCF
        * WARNING: Adding a cylindrically symmetric Gaussian confining potential
                   V0 =    1.00000 eV
                   Radius of the cylinder:  4.698 A
                   Broadening (FWHM):    1.00000 A
                   Axis parallel to    0.000    0.000    8.522 A
                   and passing through    7.198    7.198    0.000 A
      4  -3.10221094E+003 -4.84044236E+000   1.54989280E-001      15.36  <-- SCF
        * WARNING: Adding a cylindrically symmetric Gaussian confining potential
                   V0 =    1.00000 eV
                   Radius of the cylinder:  4.698 A
                   Broadening (FWHM):    1.00000 A
                   Axis parallel to    0.000    0.000    8.522 A
                   and passing through    7.198    7.198    0.000 A
      5  -3.09948894E+003 -4.88123131E+000  -2.26833496E-001      18.48  <-- SCF
        * WARNING: Adding a cylindrically symmetric Gaussian confining potential
                   V0 =    1.00000 eV
                   Radius of the cylinder:  4.698 A
                   Broadening (FWHM):    1.00000 A
                   Axis parallel to    0.000    0.000    8.522 A
                   and passing through    7.198    7.198    0.000 A
      6  -3.09970851E+003 -4.87641019E+000   1.82979575E-002      22.52  <-- SCF
        * WARNING: Adding a cylindrically symmetric Gaussian confining potential
                   V0 =    1.00000 eV
                   Radius of the cylinder:  4.698 A
                   Broadening (FWHM):    1.00000 A
                   Axis parallel to    0.000    0.000    8.522 A
                   and passing through    7.198    7.198    0.000 A
      7  -3.09971989E+003 -4.86248205E+000   9.47954807E-004      26.57  <-- SCF
        * WARNING: Adding a cylindrically symmetric Gaussian confining potential
                   V0 =    1.00000 eV
                   Radius of the cylinder:  4.698 A
                   Broadening (FWHM):    1.00000 A
                   Axis parallel to    0.000    0.000    8.522 A
                   and passing through    7.198    7.198    0.000 A
      8  -3.09971274E+003 -4.85709738E+000  -5.95602841E-004      30.16  <-- SCF
        * WARNING: Adding a cylindrically symmetric Gaussian confining potential
                   V0 =    1.00000 eV
                   Radius of the cylinder:  4.698 A
                   Broadening (FWHM):    1.00000 A
                   Axis parallel to    0.000    0.000    8.522 A
                   and passing through    7.198    7.198    0.000 A
      9  -3.09971433E+003 -4.84598666E+000   1.32120672E-004      33.19  <-- SCF
        * WARNING: Adding a cylindrically symmetric Gaussian confining potential
                   V0 =    1.00000 eV
                   Radius of the cylinder:  4.698 A
                   Broadening (FWHM):    1.00000 A
                   Axis parallel to    0.000    0.000    8.522 A
                   and passing through    7.198    7.198    0.000 A
     10  -3.09971449E+003 -4.83755702E+000   1.34618884E-005      35.72  <-- SCF
        * WARNING: Adding a cylindrically symmetric Gaussian confining potential
                   V0 =    1.00000 eV
                   Radius of the cylinder:  4.698 A
                   Broadening (FWHM):    1.00000 A
                   Axis parallel to    0.000    0.000    8.522 A
                   and passing through    7.198    7.198    0.000 A
     11  -3.09971442E+003 -4.82828664E+000  -5.71314173E-006      37.90  <-- SCF
        * WARNING: Adding a cylindrically symmetric Gaussian confining potential
                   V0 =    1.00000 eV
                   Radius of the cylinder:  4.698 A
                   Broadening (FWHM):    1.00000 A
                   Axis parallel to    0.000    0.000    8.522 A
                   and passing through    7.198    7.198    0.000 A
     12  -3.09971442E+003 -4.80440026E+000   4.07883849E-008      40.92  <-- SCF
        * WARNING: Adding a cylindrically symmetric Gaussian confining potential
                   V0 =    1.00000 eV
                   Radius of the cylinder:  4.698 A
                   Broadening (FWHM):    1.00000 A
                   Axis parallel to    0.000    0.000    8.522 A
                   and passing through    7.198    7.198    0.000 A
------------------------------------------------------------------------ <-- SCF
 
Final energy, E             =  -3099.480362734     eV
Final free energy (E-TS)    =  -3099.714418938     eV
(energies not corrected for finite basis set)
 
NB est. 0K energy (E-0.5TS)      =  -3099.597390836     eV
 

WARNING - doing cell minimisation without finite basis correction:
        => now searching for a stationary and not minimum energy
 
+---------------- MEMORY AND SCRATCH DISK ESTIMATES PER PROCESS --------------+
|                                                     Memory          Disk    |
| Model and support data                               92.2 MB         0.0 MB |
| Electronic energy minimisation requirements          42.4 MB         0.0 MB |
| Geometry minimisation requirements                   50.8 MB         0.0 MB |
|                                               ----------------------------- |
| Approx. total storage required per process          185.4 MB         0.0 MB |
|                                                                             |
| Requirements will fluctuate during execution and may exceed these estimates |
+-----------------------------------------------------------------------------+
 
 
 *********************************** Forces ***********************************
 *                                                                            *
 *                        Cartesian components (eV/A)                         *
 * -------------------------------------------------------------------------- *
 *                   x                    y                    z              *
 *                                                                            *
 * Se        1      1.80853              0.00028              0.00217         *
 * Se        2      1.82515             -0.00175             -0.00062         *
 * Se        3     -1.68216              0.00020             -0.00116         *
 * Se        4     -1.66377              0.00027             -0.00153         *
 * Se        5     -0.91809              1.49192              0.00135         *
 * Se        6     -0.92792              1.51281             -0.00082         *
 * Se        7      0.86257             -1.39959              0.00081         *
 * Se        8      0.83886             -1.43384              0.00162         *
 * Se        9      0.86195              1.39967              0.00043         *
 * Se       10      0.83712              1.43104              0.00007         *
 * Se       11     -0.91584             -1.49129             -0.00085         *
 * Se       12     -0.92642             -1.50972             -0.00145         *
 *                                                                            *
 ******************************************************************************
 
 ***************** Stress Tensor *****************
 *                                               *
 *          Cartesian components (GPa)           *
 * --------------------------------------------- *
 *             x             y             z     *
 *                                               *
 *  x      0.000000      0.000000      0.000000  *
 *  y      0.000000      0.000000      0.000000  *
 *  z      0.000000      0.000000      1.326985  *
 *                                               *
 *  Pressure:   -0.4423                          *
 *                                               *
 *************************************************
 WARNING: Devel code "1D_STRESS_TENSOR = TRUE" flag found.
          All components of the stress tensor have been set to 0, except for the zz one.
 
 *********** Constrained Stress Tensor ***********
 *                                               *
 *          Cartesian components (GPa)           *
 * --------------------------------------------- *
 *             x             y             z     *
 *                                               *
 *  x      0.000000      0.000000      0.000000  *
 *  y      0.000000      0.000000      0.000000  *
 *  z      0.000000      0.000000      1.326985  *
 *                                               *
 *  Pressure:   -0.4423                          *
 *                                               *
 *************************************************
 WARNING: Devel code "1D_STRESS_TENSOR = TRUE" flag found.
          All components of the stress tensor have been set to 0, except for the zz one.
 
 *********** Constrained Stress Tensor ***********
 *                                               *
 *          Cartesian components (GPa)           *
 * --------------------------------------------- *
 *             x             y             z     *
 *                                               *
 *  x      0.000000      0.000000      0.000000  *
 *  y      0.000000      0.000000      0.000000  *
 *  z      0.000000      0.000000      1.326985  *
 *                                               *
 *  Pressure:   -0.4423                          *
 *                                               *
 *************************************************
 WARNING: Devel code "1D_STRESS_TENSOR = TRUE" flag found.
          All components of the stress tensor have been set to 0, except for the zz one.
 TPSD: finished iteration     0 with enthalpy= -3.09971442E+003 eV
  
 +-----------+-----------------+-----------------+------------+-----+ <-- TPSD
 | Parameter |      value      |    tolerance    |    units   | OK? | <-- TPSD
 +-----------+-----------------+-----------------+------------+-----+ <-- TPSD
 |  dE/ion   |   0.000000E+000 |   2.000000E-005 |         eV | No  | <-- TPSD
 |  |F|max   |   1.825154E+000 |   5.000000E-002 |       eV/A | No  | <-- TPSD
 |  |dR|max  |   0.000000E+000 |   1.000000E-003 |          A | No  | <-- TPSD
 |   Smax    |   1.326985E+000 |   1.000000E-001 |        GPa | No  | <-- TPSD
 +-----------+-----------------+-----------------+------------+-----+ <-- TPSD
  

================================================================================
 Starting TPSD iteration          1 ...
================================================================================
  
 +------------+-------------+-------------+-----------------+ <-- min TPSD
 |    Step    |   lambda    |   F.delta'  |    enthalpy     | <-- min TPSD
 +------------+-------------+-------------+-----------------+ <-- min TPSD
 |  previous  |    0.000000 |    2.046288 |    -3099.714419 | <-- min TPSD
 +------------+-------------+-------------+-----------------+ <-- min TPSD
  

--------------------------------------------------------------------------------
 TPSD: starting iteration         1 with trial guess (lambda=  0.113038)
--------------------------------------------------------------------------------
 
                           -------------------------------
                                      Unit Cell
                           -------------------------------
        Real Lattice(A)              Reciprocal Lattice(1/A)
  14.3965000   0.0000000   0.0000000        0.4364384   0.0000000   0.0000000
   0.0000000  14.3965000   0.0000000        0.0000000   0.4364384   0.0000000
   0.0000000   0.0000000   8.5208378        0.0000000   0.0000000   0.7373906
 
                       Lattice parameters(A)       Cell Angles
                    a =   14.396500          alpha =   90.000000
                    b =   14.396500          beta  =   90.000000
                    c =    8.520838          gamma =   90.000000
 
                Current cell volume = 1766.022137 A**3
 
                           -------------------------------
                                     Cell Contents
                           -------------------------------
 
            xxxxxxxxxxxxxxxxxxxxxxxxxxxxxxxxxxxxxxxxxxxxxxxxxxxxxxxxxxxx
            x  Element    Atom        Fractional coordinates of atoms  x
            x            Number           u          v          w      x
            x----------------------------------------------------------x
            x  Se           1         0.321971   0.500000   0.166667   x
            x  Se           2         0.321971   0.500000   0.666667   x
            x  Se           3         0.601199   0.500000   0.166667   x
            x  Se           4         0.601199   0.500000   0.666667   x
            x  Se           5         0.589014   0.345822   0.333333   x
            x  Se           6         0.589014   0.345822   0.833333   x
            x  Se           7         0.449400   0.587641   0.333333   x
            x  Se           8         0.449400   0.587641   0.833333   x
            x  Se           9         0.449400   0.412359   0.000000   x
            x  Se          10         0.449400   0.412359   0.500000   x
            x  Se          11         0.589014   0.654179  -0.000000   x
            x  Se          12         0.589014   0.654178   0.500000   x
            xxxxxxxxxxxxxxxxxxxxxxxxxxxxxxxxxxxxxxxxxxxxxxxxxxxxxxxxxxxx
 
 
------------------------------------------------------------------------ <-- SCF
SCF loop      Energy           Fermi           Energy gain       Timer   <-- SCF
                               energy          per atom          (sec)   <-- SCF
------------------------------------------------------------------------ <-- SCF
Initial  -3.09948973E+003  0.00000000E+000                        49.75  <-- SCF
        * WARNING: Adding a cylindrically symmetric Gaussian confining potential
                   V0 =    1.00000 eV
                   Radius of the cylinder:  4.698 A
                   Broadening (FWHM):    1.00000 A
                   Axis parallel to    0.000    0.000    8.521 A
                   and passing through    7.198    7.198    0.000 A
      1  -3.09972912E+003 -4.75775508E+000   1.99495237E-002      53.02  <-- SCF
        * WARNING: Adding a cylindrically symmetric Gaussian confining potential
                   V0 =    1.00000 eV
                   Radius of the cylinder:  4.698 A
                   Broadening (FWHM):    1.00000 A
                   Axis parallel to    0.000    0.000    8.521 A
                   and passing through    7.198    7.198    0.000 A
      2  -3.09972913E+003 -4.75775538E+000   8.15928660E-007      55.39  <-- SCF
        * WARNING: Adding a cylindrically symmetric Gaussian confining potential
                   V0 =    1.00000 eV
                   Radius of the cylinder:  4.698 A
                   Broadening (FWHM):    1.00000 A
                   Axis parallel to    0.000    0.000    8.521 A
                   and passing through    7.198    7.198    0.000 A
      3  -3.09973614E+003 -4.76135217E+000   5.84261707E-004      59.25  <-- SCF
        * WARNING: Adding a cylindrically symmetric Gaussian confining potential
                   V0 =    1.00000 eV
                   Radius of the cylinder:  4.698 A
                   Broadening (FWHM):    1.00000 A
                   Axis parallel to    0.000    0.000    8.521 A
                   and passing through    7.198    7.198    0.000 A
      4  -3.09972004E+003 -4.76070906E+000  -1.34234852E-003      63.07  <-- SCF
        * WARNING: Adding a cylindrically symmetric Gaussian confining potential
                   V0 =    1.00000 eV
                   Radius of the cylinder:  4.698 A
                   Broadening (FWHM):    1.00000 A
                   Axis parallel to    0.000    0.000    8.521 A
                   and passing through    7.198    7.198    0.000 A
      5  -3.09972438E+003 -4.76201341E+000   3.62240663E-004      66.01  <-- SCF
        * WARNING: Adding a cylindrically symmetric Gaussian confining potential
                   V0 =    1.00000 eV
                   Radius of the cylinder:  4.698 A
                   Broadening (FWHM):    1.00000 A
                   Axis parallel to    0.000    0.000    8.521 A
                   and passing through    7.198    7.198    0.000 A
      6  -3.09972420E+003 -4.76179247E+000  -1.51756613E-005      68.45  <-- SCF
        * WARNING: Adding a cylindrically symmetric Gaussian confining potential
                   V0 =    1.00000 eV
                   Radius of the cylinder:  4.698 A
                   Broadening (FWHM):    1.00000 A
                   Axis parallel to    0.000    0.000    8.521 A
                   and passing through    7.198    7.198    0.000 A
      7  -3.09972424E+003 -4.76234810E+000   3.42375575E-006      70.44  <-- SCF
        * WARNING: Adding a cylindrically symmetric Gaussian confining potential
                   V0 =    1.00000 eV
                   Radius of the cylinder:  4.698 A
                   Broadening (FWHM):    1.00000 A
                   Axis parallel to    0.000    0.000    8.521 A
                   and passing through    7.198    7.198    0.000 A
      8  -3.09972424E+003 -4.76255669E+000   9.21754267E-008      72.78  <-- SCF
        * WARNING: Adding a cylindrically symmetric Gaussian confining potential
                   V0 =    1.00000 eV
                   Radius of the cylinder:  4.698 A
                   Broadening (FWHM):    1.00000 A
                   Axis parallel to    0.000    0.000    8.521 A
                   and passing through    7.198    7.198    0.000 A
------------------------------------------------------------------------ <-- SCF
 
Final energy, E             =  -3099.490887113     eV
Final free energy (E-TS)    =  -3099.724243171     eV
(energies not corrected for finite basis set)
 
NB est. 0K energy (E-0.5TS)      =  -3099.607565142     eV
 
 
 *********************************** Forces ***********************************
 *                                                                            *
 *                        Cartesian components (eV/A)                         *
 * -------------------------------------------------------------------------- *
 *                   x                    y                    z              *
 *                                                                            *
 * Se        1      1.79611             -0.00029             -0.00039         *
 * Se        2      1.81220             -0.00050             -0.00017         *
 * Se        3     -1.67118              0.00072             -0.00058         *
 * Se        4     -1.65603              0.00102             -0.00031         *
 * Se        5     -0.91030              1.48134              0.00050         *
 * Se        6     -0.92078              1.50110              0.00000         *
 * Se        7      0.85831             -1.39233              0.00043         *
 * Se        8      0.83343             -1.42421              0.00034         *
 * Se        9      0.85707              1.39285              0.00001         *
 * Se       10      0.83222              1.42401              0.00029         *
 * Se       11     -0.91019             -1.48208             -0.00034         *
 * Se       12     -0.92086             -1.50163              0.00022         *
 *                                                                            *
 ******************************************************************************
 
 ***************** Stress Tensor *****************
 *                                               *
 *          Cartesian components (GPa)           *
 * --------------------------------------------- *
 *             x             y             z     *
 *                                               *
 *  x      0.000000      0.000000      0.000000  *
 *  y      0.000000      0.000000      0.000000  *
 *  z      0.000000      0.000000      1.334395  *
 *                                               *
 *  Pressure:   -0.4448                          *
 *                                               *
 *************************************************
 WARNING: Devel code "1D_STRESS_TENSOR = TRUE" flag found.
          All components of the stress tensor have been set to 0, except for the zz one.
 
 *********** Constrained Stress Tensor ***********
 *                                               *
 *          Cartesian components (GPa)           *
 * --------------------------------------------- *
 *             x             y             z     *
 *                                               *
 *  x      0.000000      0.000000      0.000000  *
 *  y      0.000000      0.000000      0.000000  *
 *  z      0.000000      0.000000      1.334395  *
 *                                               *
 *  Pressure:   -0.4448                          *
 *                                               *
 *************************************************
 WARNING: Devel code "1D_STRESS_TENSOR = TRUE" flag found.
          All components of the stress tensor have been set to 0, except for the zz one.
  
 +------------+-------------+-------------+-----------------+ <-- min TPSD
 |    Step    |   lambda    |   F.delta'  |    enthalpy     | <-- min TPSD
 +------------+-------------+-------------+-----------------+ <-- min TPSD
 |  previous  |    0.000000 |    2.046288 |    -3099.714419 | <-- min TPSD
 | trial step |    0.113038 |    2.039045 |    -3099.724243 | <-- min TPSD
 +------------+-------------+-------------+-----------------+ <-- min TPSD
  
 TPSD: finished iteration     1 with enthalpy= -3.09972424E+003 eV
  
 +-----------+-----------------+-----------------+------------+-----+ <-- TPSD
 | Parameter |      value      |    tolerance    |    units   | OK? | <-- TPSD
 +-----------+-----------------+-----------------+------------+-----+ <-- TPSD
 |  dE/ion   |   8.186861E-004 |   2.000000E-005 |         eV | No  | <-- TPSD
 |  |F|max   |   1.812198E+000 |   5.000000E-002 |       eV/A | No  | <-- TPSD
 |  |dR|max  |   2.554344E-004 |   1.000000E-003 |          A | Yes | <-- TPSD
 |   Smax    |   1.334395E+000 |   1.000000E-001 |        GPa | No  | <-- TPSD
 +-----------+-----------------+-----------------+------------+-----+ <-- TPSD
  

================================================================================
 Starting TPSD iteration          2 ...
================================================================================
  
 +------------+-------------+-------------+-----------------+ <-- min TPSD
 |    Step    |   lambda    |   F.delta'  |    enthalpy     | <-- min TPSD
 +------------+-------------+-------------+-----------------+ <-- min TPSD
 |  previous  |    0.000000 |    2.026553 |    -3099.724243 | <-- min TPSD
 +------------+-------------+-------------+-----------------+ <-- min TPSD
  

--------------------------------------------------------------------------------
 TPSD: starting iteration         2 with trial guess (lambda=  8.783989)
--------------------------------------------------------------------------------
 
                           -------------------------------
                                      Unit Cell
                           -------------------------------
        Real Lattice(A)              Reciprocal Lattice(1/A)
  14.3965000   0.0000000   0.0000000        0.4364384   0.0000000   0.0000000
   0.0000000  14.3965000   0.0000000        0.0000000   0.4364384   0.0000000
   0.0000000   0.0000000   8.4542476        0.0000000   0.0000000   0.7431986
 
                       Lattice parameters(A)       Cell Angles
                    a =   14.396500          alpha =   90.000000
                    b =   14.396500          beta  =   90.000000
                    c =    8.454248          gamma =   90.000000
 
                Current cell volume = 1752.220698 A**3
 
                           -------------------------------
                                     Cell Contents
                           -------------------------------
 
            xxxxxxxxxxxxxxxxxxxxxxxxxxxxxxxxxxxxxxxxxxxxxxxxxxxxxxxxxxxx
            x  Element    Atom        Fractional coordinates of atoms  x
            x            Number           u          v          w      x
            x----------------------------------------------------------x
            x  Se           1         0.323327   0.500000   0.166667   x
            x  Se           2         0.323340   0.500000   0.666667   x
            x  Se           3         0.599936   0.500001   0.166666   x
            x  Se           4         0.599948   0.500001   0.666667   x
            x  Se           5         0.588326   0.346941   0.333334   x
            x  Se           6         0.588318   0.346956   0.833333   x
            x  Se           7         0.450049   0.586590   0.333334   x
            x  Se           8         0.450030   0.586565   0.833333   x
            x  Se           9         0.450048   0.413411   0.000000   x
            x  Se          10         0.450029   0.413435   0.500000   x
            x  Se          11         0.588327   0.653059  -0.000000   x
            x  Se          12         0.588318   0.653044   0.500000   x
            xxxxxxxxxxxxxxxxxxxxxxxxxxxxxxxxxxxxxxxxxxxxxxxxxxxxxxxxxxxx
 
 
------------------------------------------------------------------------ <-- SCF
SCF loop      Energy           Fermi           Energy gain       Timer   <-- SCF
                               energy          per atom          (sec)   <-- SCF
------------------------------------------------------------------------ <-- SCF
Initial  -3.09896087E+003  0.00000000E+000                        86.14  <-- SCF
        * WARNING: Adding a cylindrically symmetric Gaussian confining potential
                   V0 =    1.00000 eV
                   Radius of the cylinder:  4.698 A
                   Broadening (FWHM):    1.00000 A
                   Axis parallel to    0.000    0.000    8.454 A
                   and passing through    7.198    7.198    0.000 A
      1  -3.10235607E+003 -5.29867342E+000   2.82933037E-001      88.99  <-- SCF
        * WARNING: Adding a cylindrically symmetric Gaussian confining potential
                   V0 =    1.00000 eV
                   Radius of the cylinder:  4.698 A
                   Broadening (FWHM):    1.00000 A
                   Axis parallel to    0.000    0.000    8.454 A
                   and passing through    7.198    7.198    0.000 A
      2  -3.10238048E+003 -5.29892507E+000   2.03435955E-003      92.64  <-- SCF
        * WARNING: Adding a cylindrically symmetric Gaussian confining potential
                   V0 =    1.00000 eV
                   Radius of the cylinder:  4.698 A
                   Broadening (FWHM):    1.00000 A
                   Axis parallel to    0.000    0.000    8.454 A
                   and passing through    7.198    7.198    0.000 A
      3  -3.10242426E+003 -5.01979031E+000   3.64831348E-003      95.85  <-- SCF
        * WARNING: Adding a cylindrically symmetric Gaussian confining potential
                   V0 =    1.00000 eV
                   Radius of the cylinder:  4.698 A
                   Broadening (FWHM):    1.00000 A
                   Axis parallel to    0.000    0.000    8.454 A
                   and passing through    7.198    7.198    0.000 A
      4  -3.10011624E+003 -5.13064838E+000  -1.92334858E-001      99.15  <-- SCF
        * WARNING: Adding a cylindrically symmetric Gaussian confining potential
                   V0 =    1.00000 eV
                   Radius of the cylinder:  4.698 A
                   Broadening (FWHM):    1.00000 A
                   Axis parallel to    0.000    0.000    8.454 A
                   and passing through    7.198    7.198    0.000 A
      5  -3.10021584E+003 -5.06533850E+000   8.30002023E-003     102.39  <-- SCF
        * WARNING: Adding a cylindrically symmetric Gaussian confining potential
                   V0 =    1.00000 eV
                   Radius of the cylinder:  4.698 A
                   Broadening (FWHM):    1.00000 A
                   Axis parallel to    0.000    0.000    8.454 A
                   and passing through    7.198    7.198    0.000 A
      6  -3.10020357E+003 -5.00436125E+000  -1.02300561E-003     109.25  <-- SCF
        * WARNING: Adding a cylindrically symmetric Gaussian confining potential
                   V0 =    1.00000 eV
                   Radius of the cylinder:  4.698 A
                   Broadening (FWHM):    1.00000 A
                   Axis parallel to    0.000    0.000    8.454 A
                   and passing through    7.198    7.198    0.000 A
      7  -3.10019609E+003 -4.97219149E+000  -6.23401429E-004     112.60  <-- SCF
        * WARNING: Adding a cylindrically symmetric Gaussian confining potential
                   V0 =    1.00000 eV
                   Radius of the cylinder:  4.698 A
                   Broadening (FWHM):    1.00000 A
                   Axis parallel to    0.000    0.000    8.454 A
                   and passing through    7.198    7.198    0.000 A
      8  -3.10019006E+003 -4.92401174E+000  -5.02264288E-004     115.89  <-- SCF
        * WARNING: Adding a cylindrically symmetric Gaussian confining potential
                   V0 =    1.00000 eV
                   Radius of the cylinder:  4.698 A
                   Broadening (FWHM):    1.00000 A
                   Axis parallel to    0.000    0.000    8.454 A
                   and passing through    7.198    7.198    0.000 A
      9  -3.10018763E+003 -4.88124719E+000  -2.02664568E-004     118.90  <-- SCF
        * WARNING: Adding a cylindrically symmetric Gaussian confining potential
                   V0 =    1.00000 eV
                   Radius of the cylinder:  4.698 A
                   Broadening (FWHM):    1.00000 A
                   Axis parallel to    0.000    0.000    8.454 A
                   and passing through    7.198    7.198    0.000 A
     10  -3.10018678E+003 -4.83776713E+000  -7.09090132E-005     121.99  <-- SCF
        * WARNING: Adding a cylindrically symmetric Gaussian confining potential
                   V0 =    1.00000 eV
                   Radius of the cylinder:  4.698 A
                   Broadening (FWHM):    1.00000 A
                   Axis parallel to    0.000    0.000    8.454 A
                   and passing through    7.198    7.198    0.000 A
     11  -3.10018552E+003 -4.81027356E+000  -1.04836483E-004     124.78  <-- SCF
        * WARNING: Adding a cylindrically symmetric Gaussian confining potential
                   V0 =    1.00000 eV
                   Radius of the cylinder:  4.698 A
                   Broadening (FWHM):    1.00000 A
                   Axis parallel to    0.000    0.000    8.454 A
                   and passing through    7.198    7.198    0.000 A
     12  -3.10018646E+003 -4.77875546E+000   7.81527742E-005     127.60  <-- SCF
        * WARNING: Adding a cylindrically symmetric Gaussian confining potential
                   V0 =    1.00000 eV
                   Radius of the cylinder:  4.698 A
                   Broadening (FWHM):    1.00000 A
                   Axis parallel to    0.000    0.000    8.454 A
                   and passing through    7.198    7.198    0.000 A
     13  -3.10018943E+003 -4.75928266E+000   2.48138862E-004     130.57  <-- SCF
        * WARNING: Adding a cylindrically symmetric Gaussian confining potential
                   V0 =    1.00000 eV
                   Radius of the cylinder:  4.698 A
                   Broadening (FWHM):    1.00000 A
                   Axis parallel to    0.000    0.000    8.454 A
                   and passing through    7.198    7.198    0.000 A
     14  -3.10019163E+003 -4.75049213E+000   1.83283352E-004     132.90  <-- SCF
        * WARNING: Adding a cylindrically symmetric Gaussian confining potential
                   V0 =    1.00000 eV
                   Radius of the cylinder:  4.698 A
                   Broadening (FWHM):    1.00000 A
                   Axis parallel to    0.000    0.000    8.454 A
                   and passing through    7.198    7.198    0.000 A
     15  -3.10019510E+003 -4.74011072E+000   2.88770497E-004     135.40  <-- SCF
        * WARNING: Adding a cylindrically symmetric Gaussian confining potential
                   V0 =    1.00000 eV
                   Radius of the cylinder:  4.698 A
                   Broadening (FWHM):    1.00000 A
                   Axis parallel to    0.000    0.000    8.454 A
                   and passing through    7.198    7.198    0.000 A
     16  -3.10019747E+003 -4.73561413E+000   1.97688923E-004     138.06  <-- SCF
        * WARNING: Adding a cylindrically symmetric Gaussian confining potential
                   V0 =    1.00000 eV
                   Radius of the cylinder:  4.698 A
                   Broadening (FWHM):    1.00000 A
                   Axis parallel to    0.000    0.000    8.454 A
                   and passing through    7.198    7.198    0.000 A
     17  -3.10019834E+003 -4.73419091E+000   7.22000472E-005     140.63  <-- SCF
        * WARNING: Adding a cylindrically symmetric Gaussian confining potential
                   V0 =    1.00000 eV
                   Radius of the cylinder:  4.698 A
                   Broadening (FWHM):    1.00000 A
                   Axis parallel to    0.000    0.000    8.454 A
                   and passing through    7.198    7.198    0.000 A
     18  -3.10019948E+003 -4.73178654E+000   9.51228662E-005     142.99  <-- SCF
        * WARNING: Adding a cylindrically symmetric Gaussian confining potential
                   V0 =    1.00000 eV
                   Radius of the cylinder:  4.698 A
                   Broadening (FWHM):    1.00000 A
                   Axis parallel to    0.000    0.000    8.454 A
                   and passing through    7.198    7.198    0.000 A
     19  -3.10020063E+003 -4.72773536E+000   9.62832637E-005     145.24  <-- SCF
        * WARNING: Adding a cylindrically symmetric Gaussian confining potential
                   V0 =    1.00000 eV
                   Radius of the cylinder:  4.698 A
                   Broadening (FWHM):    1.00000 A
                   Axis parallel to    0.000    0.000    8.454 A
                   and passing through    7.198    7.198    0.000 A
     20  -3.10020110E+003 -4.72632663E+000   3.90085578E-005     147.43  <-- SCF
        * WARNING: Adding a cylindrically symmetric Gaussian confining potential
                   V0 =    1.00000 eV
                   Radius of the cylinder:  4.698 A
                   Broadening (FWHM):    1.00000 A
                   Axis parallel to    0.000    0.000    8.454 A
                   and passing through    7.198    7.198    0.000 A
     21  -3.10020149E+003 -4.72626840E+000   3.25537404E-005     149.87  <-- SCF
        * WARNING: Adding a cylindrically symmetric Gaussian confining potential
                   V0 =    1.00000 eV
                   Radius of the cylinder:  4.698 A
                   Broadening (FWHM):    1.00000 A
                   Axis parallel to    0.000    0.000    8.454 A
                   and passing through    7.198    7.198    0.000 A
     22  -3.10020174E+003 -4.72584297E+000   2.08122440E-005     152.03  <-- SCF
        * WARNING: Adding a cylindrically symmetric Gaussian confining potential
                   V0 =    1.00000 eV
                   Radius of the cylinder:  4.698 A
                   Broadening (FWHM):    1.00000 A
                   Axis parallel to    0.000    0.000    8.454 A
                   and passing through    7.198    7.198    0.000 A
     23  -3.10020181E+003 -4.72553588E+000   5.25585457E-006     153.80  <-- SCF
        * WARNING: Adding a cylindrically symmetric Gaussian confining potential
                   V0 =    1.00000 eV
                   Radius of the cylinder:  4.698 A
                   Broadening (FWHM):    1.00000 A
                   Axis parallel to    0.000    0.000    8.454 A
                   and passing through    7.198    7.198    0.000 A
     24  -3.10020186E+003 -4.72530808E+000   4.33573110E-006     155.99  <-- SCF
        * WARNING: Adding a cylindrically symmetric Gaussian confining potential
                   V0 =    1.00000 eV
                   Radius of the cylinder:  4.698 A
                   Broadening (FWHM):    1.00000 A
                   Axis parallel to    0.000    0.000    8.454 A
                   and passing through    7.198    7.198    0.000 A
------------------------------------------------------------------------ <-- SCF
 
Final energy, E             =  -3099.979159703     eV
Final free energy (E-TS)    =  -3100.201857137     eV
(energies not corrected for finite basis set)
 
NB est. 0K energy (E-0.5TS)      =  -3100.090508420     eV
 
 
 *********************************** Forces ***********************************
 *                                                                            *
 *                        Cartesian components (eV/A)                         *
 * -------------------------------------------------------------------------- *
 *                   x                    y                    z              *
 *                                                                            *
 * Se        1      1.61830             -0.00003              0.00006         *
 * Se        2      1.63447             -0.00007             -0.00004         *
 * Se        3     -1.60104              0.00001              0.00001         *
 * Se        4     -1.58715             -0.00001              0.00002         *
 * Se        5     -0.80756              1.38192             -0.00069         *
 * Se        6     -0.82143              1.38409             -0.00148         *
 * Se        7      0.80611             -1.32420             -0.00117         *
 * Se        8      0.79051             -1.35787             -0.00012         *
 * Se        9      0.80616              1.32421              0.00116         *
 * Se       10      0.79054              1.35793              0.00012         *
 * Se       11     -0.80749             -1.38189              0.00072         *
 * Se       12     -0.82142             -1.38411              0.00140         *
 *                                                                            *
 ******************************************************************************
 
 ***************** Stress Tensor *****************
 *                                               *
 *          Cartesian components (GPa)           *
 * --------------------------------------------- *
 *             x             y             z     *
 *                                               *
 *  x      0.000000      0.000000      0.000000  *
 *  y      0.000000      0.000000      0.000000  *
 *  z      0.000000      0.000000      1.196017  *
 *                                               *
 *  Pressure:   -0.3987                          *
 *                                               *
 *************************************************
 WARNING: Devel code "1D_STRESS_TENSOR = TRUE" flag found.
          All components of the stress tensor have been set to 0, except for the zz one.
 
 *********** Constrained Stress Tensor ***********
 *                                               *
 *          Cartesian components (GPa)           *
 * --------------------------------------------- *
 *             x             y             z     *
 *                                               *
 *  x      0.000000      0.000000      0.000000  *
 *  y      0.000000      0.000000      0.000000  *
 *  z      0.000000      0.000000      1.196017  *
 *                                               *
 *  Pressure:   -0.3987                          *
 *                                               *
 *************************************************
 WARNING: Devel code "1D_STRESS_TENSOR = TRUE" flag found.
          All components of the stress tensor have been set to 0, except for the zz one.
  
 +------------+-------------+-------------+-----------------+ <-- min TPSD
 |    Step    |   lambda    |   F.delta'  |    enthalpy     | <-- min TPSD
 +------------+-------------+-------------+-----------------+ <-- min TPSD
 |  previous  |    0.000000 |    2.026553 |    -3099.724243 | <-- min TPSD
 | trial step |    8.783989 |    1.870114 |    -3100.201857 | <-- min TPSD
 +------------+-------------+-------------+-----------------+ <-- min TPSD
  
 TPSD: finished iteration     2 with enthalpy= -3.10020186E+003 eV
  
 +-----------+-----------------+-----------------+------------+-----+ <-- TPSD
 | Parameter |      value      |    tolerance    |    units   | OK? | <-- TPSD
 +-----------+-----------------+-----------------+------------+-----+ <-- TPSD
 |  dE/ion   |   3.980116E-002 |   2.000000E-005 |         eV | No  | <-- TPSD
 |  |F|max   |   1.634471E+000 |   5.000000E-002 |       eV/A | No  | <-- TPSD
 |  |dR|max  |   1.970842E-002 |   1.000000E-003 |          A | No  | <-- TPSD
 |   Smax    |   1.196017E+000 |   1.000000E-001 |        GPa | No  | <-- TPSD
 +-----------+-----------------+-----------------+------------+-----+ <-- TPSD
  

================================================================================
 Starting TPSD iteration          3 ...
================================================================================
  
 +------------+-------------+-------------+-----------------+ <-- min TPSD
 |    Step    |   lambda    |   F.delta'  |    enthalpy     | <-- min TPSD
 +------------+-------------+-------------+-----------------+ <-- min TPSD
 |  previous  |    0.000000 |    1.908331 |    -3100.201857 | <-- min TPSD
 +------------+-------------+-------------+-----------------+ <-- min TPSD
  

--------------------------------------------------------------------------------
 TPSD: starting iteration         3 with trial guess (lambda= 88.731632)
--------------------------------------------------------------------------------
 
                           -------------------------------
                                      Unit Cell
                           -------------------------------
        Real Lattice(A)              Reciprocal Lattice(1/A)
  14.3965000   0.0000000   0.0000000        0.4364384   0.0000000   0.0000000
   0.0000000  14.3965000   0.0000000        0.0000000   0.4364384   0.0000000
   0.0000000   0.0000000   7.8513407        0.0000000   0.0000000   0.8002691
 
                       Lattice parameters(A)       Cell Angles
                    a =   14.396500          alpha =   90.000000
                    b =   14.396500          beta  =   90.000000
                    c =    7.851341          gamma =   90.000000
 
                Current cell volume = 1627.262692 A**3
 
                           -------------------------------
                                     Cell Contents
                           -------------------------------
 
            xxxxxxxxxxxxxxxxxxxxxxxxxxxxxxxxxxxxxxxxxxxxxxxxxxxxxxxxxxxx
            x  Element    Atom        Fractional coordinates of atoms  x
            x            Number           u          v          w      x
            x----------------------------------------------------------x
            x  Se           1         0.335677   0.500000   0.166667   x
            x  Se           2         0.335812   0.499999   0.666666   x
            x  Se           3         0.587719   0.500001   0.166666   x
            x  Se           4         0.587836   0.500001   0.666667   x
            x  Se           5         0.582164   0.357486   0.333325   x
            x  Se           6         0.582050   0.357518   0.833314   x
            x  Se           7         0.456200   0.576485   0.333319   x
            x  Se           8         0.456062   0.576203   0.833332   x
            x  Se           9         0.456200   0.423516   0.000015   x
            x  Se          10         0.456061   0.423797   0.500002   x
            x  Se          11         0.582165   0.642514   0.000009   x
            x  Se          12         0.582050   0.642482   0.500018   x
            xxxxxxxxxxxxxxxxxxxxxxxxxxxxxxxxxxxxxxxxxxxxxxxxxxxxxxxxxxxx
 
 
------------------------------------------------------------------------ <-- SCF
SCF loop      Energy           Fermi           Energy gain       Timer   <-- SCF
                               energy          per atom          (sec)   <-- SCF
------------------------------------------------------------------------ <-- SCF
Initial  -3.00780949E+003  0.00000000E+000                       164.48  <-- SCF
        * WARNING: Adding a cylindrically symmetric Gaussian confining potential
                   V0 =    1.00000 eV
                   Radius of the cylinder:  4.698 A
                   Broadening (FWHM):    1.00000 A
                   Axis parallel to    0.000    0.000    7.851 A
                   and passing through    7.198    7.198    0.000 A
      1  -3.27824023E+003 -1.10810373E+001   2.25358952E+001     167.12  <-- SCF
        * WARNING: Adding a cylindrically symmetric Gaussian confining potential
                   V0 =    1.00000 eV
                   Radius of the cylinder:  4.698 A
                   Broadening (FWHM):    1.00000 A
                   Axis parallel to    0.000    0.000    7.851 A
                   and passing through    7.198    7.198    0.000 A
      2  -3.28961184E+003 -1.12999606E+001   9.47634289E-001     170.39  <-- SCF
        * WARNING: Adding a cylindrically symmetric Gaussian confining potential
                   V0 =    1.00000 eV
                   Radius of the cylinder:  4.698 A
                   Broadening (FWHM):    1.00000 A
                   Axis parallel to    0.000    0.000    7.851 A
                   and passing through    7.198    7.198    0.000 A
      3  -3.13465265E+003 -8.92033004E+000  -1.29132660E+001     173.69  <-- SCF
        * WARNING: Adding a cylindrically symmetric Gaussian confining potential
                   V0 =    1.00000 eV
                   Radius of the cylinder:  4.698 A
                   Broadening (FWHM):    1.00000 A
                   Axis parallel to    0.000    0.000    7.851 A
                   and passing through    7.198    7.198    0.000 A
      4  -3.13873530E+003 -9.02482160E+000   3.40220937E-001     176.92  <-- SCF
        * WARNING: Adding a cylindrically symmetric Gaussian confining potential
                   V0 =    1.00000 eV
                   Radius of the cylinder:  4.698 A
                   Broadening (FWHM):    1.00000 A
                   Axis parallel to    0.000    0.000    7.851 A
                   and passing through    7.198    7.198    0.000 A
      5  -3.10930457E+003 -8.58952191E+000  -2.45256073E+000     180.57  <-- SCF
        * WARNING: Adding a cylindrically symmetric Gaussian confining potential
                   V0 =    1.00000 eV
                   Radius of the cylinder:  4.698 A
                   Broadening (FWHM):    1.00000 A
                   Axis parallel to    0.000    0.000    7.851 A
                   and passing through    7.198    7.198    0.000 A
      6  -3.10636890E+003 -7.93158767E+000  -2.44639485E-001     183.79  <-- SCF
        * WARNING: Adding a cylindrically symmetric Gaussian confining potential
                   V0 =    1.00000 eV
                   Radius of the cylinder:  4.698 A
                   Broadening (FWHM):    1.00000 A
                   Axis parallel to    0.000    0.000    7.851 A
                   and passing through    7.198    7.198    0.000 A
      7  -3.10467955E+003 -7.23468291E+000  -1.40779133E-001     187.24  <-- SCF
        * WARNING: Adding a cylindrically symmetric Gaussian confining potential
                   V0 =    1.00000 eV
                   Radius of the cylinder:  4.698 A
                   Broadening (FWHM):    1.00000 A
                   Axis parallel to    0.000    0.000    7.851 A
                   and passing through    7.198    7.198    0.000 A
      8  -3.10363678E+003 -6.69071805E+000  -8.68970644E-002     190.43  <-- SCF
        * WARNING: Adding a cylindrically symmetric Gaussian confining potential
                   V0 =    1.00000 eV
                   Radius of the cylinder:  4.698 A
                   Broadening (FWHM):    1.00000 A
                   Axis parallel to    0.000    0.000    7.851 A
                   and passing through    7.198    7.198    0.000 A
      9  -3.10249459E+003 -5.86562186E+000  -9.51829279E-002     193.86  <-- SCF
        * WARNING: Adding a cylindrically symmetric Gaussian confining potential
                   V0 =    1.00000 eV
                   Radius of the cylinder:  4.698 A
                   Broadening (FWHM):    1.00000 A
                   Axis parallel to    0.000    0.000    7.851 A
                   and passing through    7.198    7.198    0.000 A
     10  -3.10205274E+003 -5.33148720E+000  -3.68211517E-002     197.33  <-- SCF
        * WARNING: Adding a cylindrically symmetric Gaussian confining potential
                   V0 =    1.00000 eV
                   Radius of the cylinder:  4.698 A
                   Broadening (FWHM):    1.00000 A
                   Axis parallel to    0.000    0.000    7.851 A
                   and passing through    7.198    7.198    0.000 A
     11  -3.10199768E+003 -4.94697922E+000  -4.58784482E-003     200.71  <-- SCF
        * WARNING: Adding a cylindrically symmetric Gaussian confining potential
                   V0 =    1.00000 eV
                   Radius of the cylinder:  4.698 A
                   Broadening (FWHM):    1.00000 A
                   Axis parallel to    0.000    0.000    7.851 A
                   and passing through    7.198    7.198    0.000 A
     12  -3.10202712E+003 -4.78711924E+000   2.45302153E-003     203.86  <-- SCF
        * WARNING: Adding a cylindrically symmetric Gaussian confining potential
                   V0 =    1.00000 eV
                   Radius of the cylinder:  4.698 A
                   Broadening (FWHM):    1.00000 A
                   Axis parallel to    0.000    0.000    7.851 A
                   and passing through    7.198    7.198    0.000 A
     13  -3.10208706E+003 -4.69918222E+000   4.99500837E-003     207.10  <-- SCF
        * WARNING: Adding a cylindrically symmetric Gaussian confining potential
                   V0 =    1.00000 eV
                   Radius of the cylinder:  4.698 A
                   Broadening (FWHM):    1.00000 A
                   Axis parallel to    0.000    0.000    7.851 A
                   and passing through    7.198    7.198    0.000 A
     14  -3.10214457E+003 -4.47781050E+000   4.79275856E-003     210.42  <-- SCF
        * WARNING: Adding a cylindrically symmetric Gaussian confining potential
                   V0 =    1.00000 eV
                   Radius of the cylinder:  4.698 A
                   Broadening (FWHM):    1.00000 A
                   Axis parallel to    0.000    0.000    7.851 A
                   and passing through    7.198    7.198    0.000 A
     15  -3.10216092E+003 -4.42543920E+000   1.36216750E-003     213.71  <-- SCF
        * WARNING: Adding a cylindrically symmetric Gaussian confining potential
                   V0 =    1.00000 eV
                   Radius of the cylinder:  4.698 A
                   Broadening (FWHM):    1.00000 A
                   Axis parallel to    0.000    0.000    7.851 A
                   and passing through    7.198    7.198    0.000 A
     16  -3.10216633E+003 -4.44257516E+000   4.51164037E-004     216.96  <-- SCF
        * WARNING: Adding a cylindrically symmetric Gaussian confining potential
                   V0 =    1.00000 eV
                   Radius of the cylinder:  4.698 A
                   Broadening (FWHM):    1.00000 A
                   Axis parallel to    0.000    0.000    7.851 A
                   and passing through    7.198    7.198    0.000 A
     17  -3.10217429E+003 -4.42552564E+000   6.63126962E-004     219.89  <-- SCF
        * WARNING: Adding a cylindrically symmetric Gaussian confining potential
                   V0 =    1.00000 eV
                   Radius of the cylinder:  4.698 A
                   Broadening (FWHM):    1.00000 A
                   Axis parallel to    0.000    0.000    7.851 A
                   and passing through    7.198    7.198    0.000 A
     18  -3.10218391E+003 -4.36446333E+000   8.02118302E-004     222.89  <-- SCF
        * WARNING: Adding a cylindrically symmetric Gaussian confining potential
                   V0 =    1.00000 eV
                   Radius of the cylinder:  4.698 A
                   Broadening (FWHM):    1.00000 A
                   Axis parallel to    0.000    0.000    7.851 A
                   and passing through    7.198    7.198    0.000 A
     19  -3.10218879E+003 -4.35620719E+000   4.06665947E-004     225.93  <-- SCF
        * WARNING: Adding a cylindrically symmetric Gaussian confining potential
                   V0 =    1.00000 eV
                   Radius of the cylinder:  4.698 A
                   Broadening (FWHM):    1.00000 A
                   Axis parallel to    0.000    0.000    7.851 A
                   and passing through    7.198    7.198    0.000 A
     20  -3.10219182E+003 -4.35507166E+000   2.52303577E-004     228.21  <-- SCF
        * WARNING: Adding a cylindrically symmetric Gaussian confining potential
                   V0 =    1.00000 eV
                   Radius of the cylinder:  4.698 A
                   Broadening (FWHM):    1.00000 A
                   Axis parallel to    0.000    0.000    7.851 A
                   and passing through    7.198    7.198    0.000 A
     21  -3.10219423E+003 -4.35240416E+000   2.00577470E-004     230.84  <-- SCF
        * WARNING: Adding a cylindrically symmetric Gaussian confining potential
                   V0 =    1.00000 eV
                   Radius of the cylinder:  4.698 A
                   Broadening (FWHM):    1.00000 A
                   Axis parallel to    0.000    0.000    7.851 A
                   and passing through    7.198    7.198    0.000 A
     22  -3.10219619E+003 -4.34951612E+000   1.63449379E-004     233.57  <-- SCF
        * WARNING: Adding a cylindrically symmetric Gaussian confining potential
                   V0 =    1.00000 eV
                   Radius of the cylinder:  4.698 A
                   Broadening (FWHM):    1.00000 A
                   Axis parallel to    0.000    0.000    7.851 A
                   and passing through    7.198    7.198    0.000 A
     23  -3.10219687E+003 -4.34851043E+000   5.69644908E-005     235.86  <-- SCF
        * WARNING: Adding a cylindrically symmetric Gaussian confining potential
                   V0 =    1.00000 eV
                   Radius of the cylinder:  4.698 A
                   Broadening (FWHM):    1.00000 A
                   Axis parallel to    0.000    0.000    7.851 A
                   and passing through    7.198    7.198    0.000 A
     24  -3.10219732E+003 -4.34844209E+000   3.70193560E-005     238.43  <-- SCF
        * WARNING: Adding a cylindrically symmetric Gaussian confining potential
                   V0 =    1.00000 eV
                   Radius of the cylinder:  4.698 A
                   Broadening (FWHM):    1.00000 A
                   Axis parallel to    0.000    0.000    7.851 A
                   and passing through    7.198    7.198    0.000 A
     25  -3.10219764E+003 -4.34847228E+000   2.72434656E-005     240.61  <-- SCF
        * WARNING: Adding a cylindrically symmetric Gaussian confining potential
                   V0 =    1.00000 eV
                   Radius of the cylinder:  4.698 A
                   Broadening (FWHM):    1.00000 A
                   Axis parallel to    0.000    0.000    7.851 A
                   and passing through    7.198    7.198    0.000 A
     26  -3.10219771E+003 -4.34837802E+000   5.66949566E-006     243.45  <-- SCF
        * WARNING: Adding a cylindrically symmetric Gaussian confining potential
                   V0 =    1.00000 eV
                   Radius of the cylinder:  4.698 A
                   Broadening (FWHM):    1.00000 A
                   Axis parallel to    0.000    0.000    7.851 A
                   and passing through    7.198    7.198    0.000 A
     27  -3.10219775E+003 -4.34835941E+000   2.85764824E-006     245.71  <-- SCF
        * WARNING: Adding a cylindrically symmetric Gaussian confining potential
                   V0 =    1.00000 eV
                   Radius of the cylinder:  4.698 A
                   Broadening (FWHM):    1.00000 A
                   Axis parallel to    0.000    0.000    7.851 A
                   and passing through    7.198    7.198    0.000 A
------------------------------------------------------------------------ <-- SCF
 
Final energy, E             =  -3102.024129935     eV
Final free energy (E-TS)    =  -3102.197746770     eV
(energies not corrected for finite basis set)
 
NB est. 0K energy (E-0.5TS)      =  -3102.110938353     eV
 
 
 *********************************** Forces ***********************************
 *                                                                            *
 *                        Cartesian components (eV/A)                         *
 * -------------------------------------------------------------------------- *
 *                   x                    y                    z              *
 *                                                                            *
 * Se        1     -0.66342             -0.00005              0.00002         *
 * Se        2     -0.67714             -0.00001              0.00010         *
 * Se        3     -0.21106             -0.00010              0.00007         *
 * Se        4     -0.20776             -0.00006              0.00004         *
 * Se        5      0.34018             -0.72810             -0.00896         *
 * Se        6      0.35653             -0.73059             -0.01847         *
 * Se        7      0.07469             -0.30380             -0.02750         *
 * Se        8      0.10812             -0.27703              0.00552         *
 * Se        9      0.07477              0.30378              0.02746         *
 * Se       10      0.10824              0.27701             -0.00558         *
 * Se       11      0.34022              0.72822              0.00886         *
 * Se       12      0.35663              0.73073              0.01845         *
 *                                                                            *
 ******************************************************************************
 
 ***************** Stress Tensor *****************
 *                                               *
 *          Cartesian components (GPa)           *
 * --------------------------------------------- *
 *             x             y             z     *
 *                                               *
 *  x      0.000000      0.000000      0.000000  *
 *  y      0.000000      0.000000      0.000000  *
 *  z      0.000000      0.000000     -0.889756  *
 *                                               *
 *  Pressure:    0.2966                          *
 *                                               *
 *************************************************
 WARNING: Devel code "1D_STRESS_TENSOR = TRUE" flag found.
          All components of the stress tensor have been set to 0, except for the zz one.
 
 *********** Constrained Stress Tensor ***********
 *                                               *
 *          Cartesian components (GPa)           *
 * --------------------------------------------- *
 *             x             y             z     *
 *                                               *
 *  x      0.000000      0.000000      0.000000  *
 *  y      0.000000      0.000000      0.000000  *
 *  z      0.000000      0.000000     -0.889756  *
 *                                               *
 *  Pressure:    0.2966                          *
 *                                               *
 *************************************************
 WARNING: Devel code "1D_STRESS_TENSOR = TRUE" flag found.
          All components of the stress tensor have been set to 0, except for the zz one.
  
 +------------+-------------+-------------+-----------------+ <-- min TPSD
 |    Step    |   lambda    |   F.delta'  |    enthalpy     | <-- min TPSD
 +------------+-------------+-------------+-----------------+ <-- min TPSD
 |  previous  |    0.000000 |    1.908331 |    -3100.201857 | <-- min TPSD
 | trial step |   88.731632 |   -0.546874 |    -3102.197747 | <-- min TPSD
 +------------+-------------+-------------+-----------------+ <-- min TPSD
  
 TPSD: finished iteration     3 with enthalpy= -3.10219775E+003 eV
  
 +-----------+-----------------+-----------------+------------+-----+ <-- TPSD
 | Parameter |      value      |    tolerance    |    units   | OK? | <-- TPSD
 +-----------+-----------------+-----------------+------------+-----+ <-- TPSD
 |  dE/ion   |   1.663241E-001 |   2.000000E-005 |         eV | No  | <-- TPSD
 |  |F|max   |   8.133208E-001 |   5.000000E-002 |       eV/A | No  | <-- TPSD
 |  |dR|max  |   1.795603E-001 |   1.000000E-003 |          A | No  | <-- TPSD
 |   Smax    |   8.897555E-001 |   1.000000E-001 |        GPa | No  | <-- TPSD
 +-----------+-----------------+-----------------+------------+-----+ <-- TPSD
  

================================================================================
 Starting TPSD iteration          4 ...
================================================================================
  
 +------------+-------------+-------------+-----------------+ <-- min TPSD
 |    Step    |   lambda    |   F.delta'  |    enthalpy     | <-- min TPSD
 +------------+-------------+-------------+-----------------+ <-- min TPSD
 |  previous  |    0.000000 |    0.639162 |    -3102.197747 | <-- min TPSD
 +------------+-------------+-------------+-----------------+ <-- min TPSD
  

--------------------------------------------------------------------------------
 TPSD: starting iteration         4 with trial guess (lambda= 53.780621)
--------------------------------------------------------------------------------
 
                           -------------------------------
                                      Unit Cell
                           -------------------------------
        Real Lattice(A)              Reciprocal Lattice(1/A)
  14.3965000   0.0000000   0.0000000        0.4364384   0.0000000   0.0000000
   0.0000000  14.3965000   0.0000000        0.0000000   0.4364384   0.0000000
   0.0000000   0.0000000   8.1231918        0.0000000   0.0000000   0.7734873
 
                       Lattice parameters(A)       Cell Angles
                    a =   14.396500          alpha =   90.000000
                    b =   14.396500          beta  =   90.000000
                    c =    8.123192          gamma =   90.000000
 
                Current cell volume = 1683.606323 A**3
 
                           -------------------------------
                                     Cell Contents
                           -------------------------------
 
            xxxxxxxxxxxxxxxxxxxxxxxxxxxxxxxxxxxxxxxxxxxxxxxxxxxxxxxxxxxx
            x  Element    Atom        Fractional coordinates of atoms  x
[...]
 *                                               *
 *************************************************
 WARNING: Devel code "1D_STRESS_TENSOR = TRUE" flag found.
          All components of the stress tensor have been set to 0, except for the zz one.
  
 +------------+-------------+-------------+-----------------+ <-- min TPSD
 |    Step    |   lambda    |   F.delta'  |    enthalpy     | <-- min TPSD
 +------------+-------------+-------------+-----------------+ <-- min TPSD
 |  previous  |    0.000000 |    0.029180 |    -3102.578337 | <-- min TPSD
 | trial step |  112.171336 |    0.012611 |    -3102.579323 | <-- min TPSD
 +------------+-------------+-------------+-----------------+ <-- min TPSD
  
 TPSD: finished iteration    11 with enthalpy= -3.10257932E+003 eV
  
 +-----------+-----------------+-----------------+------------+-----+ <-- TPSD
 | Parameter |      value      |    tolerance    |    units   | OK? | <-- TPSD
 +-----------+-----------------+-----------------+------------+-----+ <-- TPSD
 |  dE/ion   |   8.217993E-005 |   2.000000E-005 |         eV | No  | <-- TPSD
 |  |F|max   |   1.967589E-002 |   5.000000E-002 |       eV/A | Yes | <-- TPSD
 |  |dR|max  |   4.932581E-003 |   1.000000E-003 |          A | No  | <-- TPSD
 |   Smax    |   2.353368E-002 |   1.000000E-001 |        GPa | Yes | <-- TPSD
 +-----------+-----------------+-----------------+------------+-----+ <-- TPSD
  

================================================================================
 Starting TPSD iteration         12 ...
================================================================================
  
 +------------+-------------+-------------+-----------------+ <-- min TPSD
 |    Step    |   lambda    |   F.delta'  |    enthalpy     | <-- min TPSD
 +------------+-------------+-------------+-----------------+ <-- min TPSD
 |  previous  |    0.000000 |    0.016907 |    -3102.579323 | <-- min TPSD
 +------------+-------------+-------------+-----------------+ <-- min TPSD
  

--------------------------------------------------------------------------------
 TPSD: starting iteration        12 with trial guess (lambda= 28.241357)
--------------------------------------------------------------------------------
 
                           -------------------------------
                                      Unit Cell
                           -------------------------------
        Real Lattice(A)              Reciprocal Lattice(1/A)
  14.3965000   0.0000000   0.0000000        0.4364384   0.0000000   0.0000000
   0.0000000  14.3965000   0.0000000        0.0000000   0.4364384   0.0000000
   0.0000000   0.0000000   8.3282037        0.0000000   0.0000000   0.7544466
 
                       Lattice parameters(A)       Cell Angles
                    a =   14.396500          alpha =   90.000000
                    b =   14.396500          beta  =   90.000000
                    c =    8.328204          gamma =   90.000000
 
                Current cell volume = 1726.096935 A**3
 
                           -------------------------------
                                     Cell Contents
                           -------------------------------
 
            xxxxxxxxxxxxxxxxxxxxxxxxxxxxxxxxxxxxxxxxxxxxxxxxxxxxxxxxxxxx
            x  Element    Atom        Fractional coordinates of atoms  x
            x            Number           u          v          w      x
            x----------------------------------------------------------x
            x  Se           1         0.333957   0.499996   0.166669   x
            x  Se           2         0.334153   0.499993   0.666670   x
            x  Se           3         0.583401   0.499998   0.166668   x
            x  Se           4         0.583436   0.500003   0.666669   x
            x  Se           5         0.583158   0.355813   0.333310   x
            x  Se           6         0.582869   0.355763   0.833088   x
            x  Se           7         0.458287   0.573188   0.333034   x
            x  Se           8         0.458211   0.572796   0.833470   x
            x  Se           9         0.458285   0.426815   0.000297   x
            x  Se          10         0.458210   0.427208   0.499867   x
            x  Se          11         0.583158   0.644188   0.000017   x
            x  Se          12         0.582871   0.644238   0.500240   x
            xxxxxxxxxxxxxxxxxxxxxxxxxxxxxxxxxxxxxxxxxxxxxxxxxxxxxxxxxxxx
 
 
------------------------------------------------------------------------ <-- SCF
SCF loop      Energy           Fermi           Energy gain       Timer   <-- SCF
                               energy          per atom          (sec)   <-- SCF
------------------------------------------------------------------------ <-- SCF
Initial  -3.10249703E+003  0.00000000E+000                       665.89  <-- SCF
        * WARNING: Adding a cylindrically symmetric Gaussian confining potential
                   V0 =    1.00000 eV
                   Radius of the cylinder:  4.698 A
                   Broadening (FWHM):    1.00000 A
                   Axis parallel to    0.000    0.000    8.328 A
                   and passing through    7.198    7.198    0.000 A
      1  -3.10258013E+003 -4.56566860E+000   6.92538605E-003     668.74  <-- SCF
        * WARNING: Adding a cylindrically symmetric Gaussian confining potential
                   V0 =    1.00000 eV
                   Radius of the cylinder:  4.698 A
                   Broadening (FWHM):    1.00000 A
                   Axis parallel to    0.000    0.000    8.328 A
                   and passing through    7.198    7.198    0.000 A
      2  -3.10258014E+003 -4.56566881E+000   8.12078801E-007     671.55  <-- SCF
        * WARNING: Adding a cylindrically symmetric Gaussian confining potential
                   V0 =    1.00000 eV
                   Radius of the cylinder:  4.698 A
                   Broadening (FWHM):    1.00000 A
                   Axis parallel to    0.000    0.000    8.328 A
                   and passing through    7.198    7.198    0.000 A
      3  -3.10257958E+003 -4.56477643E+000  -4.72211330E-005     674.56  <-- SCF
        * WARNING: Adding a cylindrically symmetric Gaussian confining potential
                   V0 =    1.00000 eV
                   Radius of the cylinder:  4.698 A
                   Broadening (FWHM):    1.00000 A
                   Axis parallel to    0.000    0.000    8.328 A
                   and passing through    7.198    7.198    0.000 A
      4  -3.10257950E+003 -4.56452549E+000  -6.63029849E-006     677.53  <-- SCF
        * WARNING: Adding a cylindrically symmetric Gaussian confining potential
                   V0 =    1.00000 eV
                   Radius of the cylinder:  4.698 A
                   Broadening (FWHM):    1.00000 A
                   Axis parallel to    0.000    0.000    8.328 A
                   and passing through    7.198    7.198    0.000 A
      5  -3.10257948E+003 -4.56472997E+000  -1.36023658E-006     680.24  <-- SCF
        * WARNING: Adding a cylindrically symmetric Gaussian confining potential
                   V0 =    1.00000 eV
                   Radius of the cylinder:  4.698 A
                   Broadening (FWHM):    1.00000 A
                   Axis parallel to    0.000    0.000    8.328 A
                   and passing through    7.198    7.198    0.000 A
------------------------------------------------------------------------ <-- SCF
 
Final energy, E             =  -3102.497511211     eV
Final free energy (E-TS)    =  -3102.579481503     eV
(energies not corrected for finite basis set)
 
NB est. 0K energy (E-0.5TS)      =  -3102.538496357     eV
 
 
 *********************************** Forces ***********************************
 *                                                                            *
 *                        Cartesian components (eV/A)                         *
 * -------------------------------------------------------------------------- *
 *                   x                    y                    z              *
 *                                                                            *
 * Se        1      0.01738             -0.00010              0.00003         *
 * Se        2      0.01875             -0.00039              0.00008         *
 * Se        3      0.00784             -0.00022              0.00007         *
 * Se        4     -0.00062              0.00011              0.00002         *
 * Se        5     -0.01481             -0.00465             -0.00934         *
 * Se        6     -0.01718             -0.00526             -0.01002         *
 * Se        7      0.01045              0.00697             -0.00460         *
 * Se        8      0.00014              0.00132              0.00433         *
 * Se        9      0.01028             -0.00683              0.00446         *
 * Se       10     -0.00010             -0.00108             -0.00412         *
 * Se       11     -0.01500              0.00477              0.00916         *
 * Se       12     -0.01714              0.00535              0.00994         *
 *                                                                            *
 ******************************************************************************
 
 ***************** Stress Tensor *****************
 *                                               *
 *          Cartesian components (GPa)           *
 * --------------------------------------------- *
 *             x             y             z     *
 *                                               *
 *  x      0.000000      0.000000      0.000000  *
 *  y      0.000000      0.000000      0.000000  *
 *  z      0.000000      0.000000     -0.016551  *
 *                                               *
 *  Pressure:    0.0055                          *
 *                                               *
 *************************************************
 WARNING: Devel code "1D_STRESS_TENSOR = TRUE" flag found.
          All components of the stress tensor have been set to 0, except for the zz one.
 
 *********** Constrained Stress Tensor ***********
 *                                               *
 *          Cartesian components (GPa)           *
 * --------------------------------------------- *
 *             x             y             z     *
 *                                               *
 *  x      0.000000      0.000000      0.000000  *
 *  y      0.000000      0.000000      0.000000  *
 *  z      0.000000      0.000000     -0.016551  *
 *                                               *
 *  Pressure:    0.0055                          *
 *                                               *
 *************************************************
 WARNING: Devel code "1D_STRESS_TENSOR = TRUE" flag found.
          All components of the stress tensor have been set to 0, except for the zz one.
  
 +------------+-------------+-------------+-----------------+ <-- min TPSD
 |    Step    |   lambda    |   F.delta'  |    enthalpy     | <-- min TPSD
 +------------+-------------+-------------+-----------------+ <-- min TPSD
 |  previous  |    0.000000 |    0.016907 |    -3102.579323 | <-- min TPSD
 | trial step |   28.241357 |    0.013087 |    -3102.579482 | <-- min TPSD
 +------------+-------------+-------------+-----------------+ <-- min TPSD
  
 TPSD: finished iteration    12 with enthalpy= -3.10257948E+003 eV
  
 +-----------+-----------------+-----------------+------------+-----+ <-- TPSD
 | Parameter |      value      |    tolerance    |    units   | OK? | <-- TPSD
 +-----------+-----------------+-----------------+------------+-----+ <-- TPSD
 |  dE/ion   |   1.321710E-005 |   2.000000E-005 |         eV | Yes | <-- TPSD
 |  |F|max   |   2.056986E-002 |   5.000000E-002 |       eV/A | Yes | <-- TPSD
 |  |dR|max  |   6.817993E-004 |   1.000000E-003 |          A | Yes | <-- TPSD
 |   Smax    |   1.655051E-002 |   1.000000E-001 |        GPa | Yes | <-- TPSD
 +-----------+-----------------+-----------------+------------+-----+ <-- TPSD
  
 TPSD: Geometry optimization completed successfully.

================================================================================
 TPSD: Final Configuration:
================================================================================
 
                           -------------------------------
                                      Unit Cell
                           -------------------------------
        Real Lattice(A)              Reciprocal Lattice(1/A)
  14.3965000   0.0000000   0.0000000        0.4364384   0.0000000   0.0000000
   0.0000000  14.3965000   0.0000000        0.0000000   0.4364384   0.0000000
   0.0000000   0.0000000   8.3282037        0.0000000   0.0000000   0.7544466
 
                       Lattice parameters(A)       Cell Angles
                    a =   14.396500          alpha =   90.000000
                    b =   14.396500          beta  =   90.000000
                    c =    8.328204          gamma =   90.000000
 
                Current cell volume = 1726.096935 A**3
 
                           -------------------------------
                                     Cell Contents
                           -------------------------------
 
            xxxxxxxxxxxxxxxxxxxxxxxxxxxxxxxxxxxxxxxxxxxxxxxxxxxxxxxxxxxx
            x  Element    Atom        Fractional coordinates of atoms  x
            x            Number           u          v          w      x
            x----------------------------------------------------------x
            x  Se           1         0.333957   0.499996   0.166669   x
            x  Se           2         0.334153   0.499993   0.666670   x
            x  Se           3         0.583401   0.499998   0.166668   x
            x  Se           4         0.583436   0.500003   0.666669   x
            x  Se           5         0.583158   0.355813   0.333310   x
            x  Se           6         0.582869   0.355763   0.833088   x
            x  Se           7         0.458287   0.573188   0.333034   x
            x  Se           8         0.458211   0.572796   0.833470   x
            x  Se           9         0.458285   0.426815   0.000297   x
            x  Se          10         0.458210   0.427208   0.499867   x
            x  Se          11         0.583158   0.644188   0.000017   x
            x  Se          12         0.582871   0.644238   0.500240   x
            xxxxxxxxxxxxxxxxxxxxxxxxxxxxxxxxxxxxxxxxxxxxxxxxxxxxxxxxxxxx
 
 
 TPSD: Final Enthalpy     = -3.10257948E+003 eV
  
  **********************************************************
  *** There were at least     1 warnings during this run ***
  *** => please check the whole of this file carefully!  ***
  **********************************************************
 
 *********************************** Forces ***********************************
 *                                                                            *
 *                        Cartesian components (eV/A)                         *
 * -------------------------------------------------------------------------- *
 *                   x                    y                    z              *
 *                                                                            *
 * Se        1      0.01738             -0.00010              0.00003         *
 * Se        2      0.01875             -0.00039              0.00008         *
 * Se        3      0.00784             -0.00022              0.00007         *
 * Se        4     -0.00062              0.00011              0.00002         *
 * Se        5     -0.01481             -0.00465             -0.00934         *
 * Se        6     -0.01718             -0.00526             -0.01002         *
 * Se        7      0.01045              0.00697             -0.00460         *
 * Se        8      0.00014              0.00132              0.00433         *
 * Se        9      0.01028             -0.00683              0.00446         *
 * Se       10     -0.00010             -0.00108             -0.00412         *
 * Se       11     -0.01500              0.00477              0.00916         *
 * Se       12     -0.01714              0.00535              0.00994         *
 *                                                                            *
 ******************************************************************************
 
 ***************** Stress Tensor *****************
 *                                               *
 *          Cartesian components (GPa)           *
 * --------------------------------------------- *
 *             x             y             z     *
 *                                               *
 *  x      0.000000      0.000000      0.000000  *
 *  y      0.000000      0.000000      0.000000  *
 *  z      0.000000      0.000000     -0.016551  *
 *                                               *
 *  Pressure:    0.0055                          *
 *                                               *
 *************************************************
 WARNING: Devel code "1D_STRESS_TENSOR = TRUE" flag found.
          All components of the stress tensor have been set to 0, except for the zz one.
 
 Pseudo atomic calculation performed for Se 4s2 4p4
 
 Converged in 19 iterations to a total energy of -254.9251 eV
 
Charge spilling parameter for spin component 1 = 1.00%
 
     Atomic Populations (Mulliken)
     -----------------------------
Species   Ion     s      p      d      f     Total  Charge (e)
==============================================================
  Se       1     1.98   4.37   0.00   0.00   6.34    -0.34
  Se       2     1.98   4.36   0.00   0.00   6.34    -0.34
  Se       3     1.92   3.74   0.00   0.00   5.66     0.34
  Se       4     1.92   3.74   0.00   0.00   5.66     0.34
  Se       5     1.98   4.36   0.00   0.00   6.34    -0.34
  Se       6     1.98   4.36   0.00   0.00   6.34    -0.34
  Se       7     1.92   3.74   0.00   0.00   5.66     0.34
  Se       8     1.92   3.74   0.00   0.00   5.66     0.34
  Se       9     1.92   3.74   0.00   0.00   5.66     0.34
  Se      10     1.92   3.74   0.00   0.00   5.66     0.34
  Se      11     1.98   4.36   0.00   0.00   6.34    -0.34
  Se      12     1.98   4.36   0.00   0.00   6.34    -0.34
==============================================================
 
            Bond              Population      Length (A)
============================================================
        Se 7  -- Se 12            -0.24        2.49044
        Se 6  -- Se 9             -0.24        2.49046
        Se 8  -- Se 11            -0.24        2.49317
        Se 5  -- Se 10            -0.24        2.49324
        Se 2  -- Se 10            -0.24        2.49350
        Se 2  -- Se 8             -0.24        2.49362
        Se 4  -- Se 12            -0.23        2.49659
        Se 4  -- Se 6             -0.23        2.49661
        Se 1  -- Se 9             -0.24        2.49670
        Se 1  -- Se 7             -0.24        2.49676
        Se 3  -- Se 5             -0.23        2.49697
        Se 3  -- Se 11            -0.23        2.49706
        Se 3  -- Se 7              0.18        2.50484
        Se 3  -- Se 9              0.18        2.50485
        Se 4  -- Se 8              0.18        2.50560
        Se 4  -- Se 10             0.18        2.50563
        Se 8  -- Se 9              0.14        2.51936
        Se 7  -- Se 10             0.14        2.51937
============================================================
 
Initialisation time =      1.19 s
Calculation time    =    696.61 s
Finalisation time   =      0.14 s
Total time          =    697.95 s
Peak Memory Use     = 510684 kB
  
Overall parallel efficiency rating: Ideal (100%)                                
  
Data was distributed by:-
G-vector (2-way); efficiency rating: Ideal (100%)                               
k-point (2-way); efficiency rating: Ideal (100%)                                
