 +-------------------------------------------------+
 |                                                 |
 |      CCC   AA    SSS  TTTTT  EEEEE  PPPP        |
 |     C     A  A  S       T    E      P   P       |
 |     C     AAAA   SS     T    EEE    PPPP        |
 |     C     A  A     S    T    E      P           |
 |      CCC  A  A  SSS     T    EEEEE  P           |
 |                                                 |
 +-------------------------------------------------+
 |                                                 |
 | Welcome to Academic Release CASTEP version 19.1 |          
 | Ab Initio Total Energy Program                  |
 |                                                 |
 | Authors:                                        |
 | M. Segall, M. Probert, C. Pickard, P. Hasnip,   |
 | S. Clark, K. Refson, J. R. Yates, M. Payne      |
 |                                                 |
 | Contributors:                                   |
 | P. Lindan, P. Haynes, J. White, V. Milman,      |
 | N. Govind, M. Gibson, P. Tulip, V. Cocula,      |
 | B. Montanari, D. Quigley, M. Glover,            |
 | L. Bernasconi, A. Perlov, M. Plummer,           |
 | E. McNellis, J. Meyer, J. Gale, D. Jochym       |
 | J. Aarons, B. Walker, R. Gillen, D. Jones       |
 | T. Green, I. J. Bush, C. J. Armstrong,          |
 | E. J. Higgins, E. L. Brown, M. S. McFly,        |
 | J. Wilkins, B-C. Shih, P. J. P. Byrne           |
 |                                                 |
 | Copyright (c) 2000 - 2018                       |
 |                                                 |
 |     Distributed under the terms of an           |
 |     Agreement between the United Kingdom        |
 |     Car-Parrinello (UKCP) Consortium,           |
 |     Daresbury Laboratory and Accelrys, Inc.     |
 |                                                 |
 | Please cite                                     |
 |                                                 |
 |     "First principles methods using CASTEP"     |
 |                                                 |
 |         Zeitschrift fuer Kristallographie       |
 |           220(5-6) pp. 567-570 (2005)           |
 |                                                 |
 | S. J. Clark, M. D. Segall, C. J. Pickard,       |
 | P. J. Hasnip, M. J. Probert, K. Refson,         |
 | M. C. Payne                                     |
 |                                                 |
 |       in all publications arising from          |
 |              your use of CASTEP                 |
 |                                                 |
 +-------------------------------------------------+
 |                                                 |
 |              http://www.castep.org              |
 |                                                 |
 +-------------------------------------------------+
 
 
 
 Compiled for linux_x86_64_ifort17 on Wed, 19 Dec 2018 17:46:20 +0000
 from code version Version unavailable
 Compiler: Intel Fortran 17.0.1.132; Optimisation: fast
 MATHLIBS: Intel MKL(2017.0.1) (LAPACK version 3.6.0)
 FFT Lib : mkl
 Fundamental constants values: CODATA 2014
 
 Run started: Wed, 19 Dec 2018 18:51:15 +0000
 Info: number of up-spin electrons is not equal to the
       number of down-spins but spin_polarized=false
     - consider setting spin_polarized=true.
 Warning in parameters_read: it appears you may not have specified enough 
                           - extra bands so you may have trouble with metals
                           - convergence as a consequence. Suggest you 
                           - consider setting nextra_bands=4 at least.
 
 Pseudo atomic calculation performed for K 3s2 3p6 4s1
 
 Converged in 35 iterations to a total energy of -790.3777 eV
 Calculation parallelised over 28 processes.
 Data is distributed by k-point(28-way)

 ************************************ Title ************************************
 

 ***************************** General Parameters ******************************
  
 output verbosity                               : normal  (1)
 write checkpoint data to                       : K-Na-Collo.check
 type of calculation                            : single point energy
 stress calculation                             : on
 density difference calculation                 : off
 electron localisation func (ELF) calculation   : off
 Hirshfeld analysis                             : off
 unlimited duration calculation
 timing information                             : on
 memory usage estimate                          : on
 write extra output files                       : on
 write final potential to formatted file        : off
 write final density to formatted file          : off
 write structure in CELL formatted file         : on
 write BibTeX reference list                    : off
 write OTFG pseudopotential files               : on
 write electrostatic potential file             : on
 write bands file                               : on
 checkpoint writing                             : off
  
 output         length unit                     : A
 output           mass unit                     : amu
 output           time unit                     : ps
 output         charge unit                     : e
 output           spin unit                     : hbar/2
 output         energy unit                     : eV
 output          force unit                     : eV/A
 output       velocity unit                     : A/ps
 output       pressure unit                     : GPa
 output     inv_length unit                     : 1/A
 output      frequency unit                     : cm-1
 output force constant unit                     : eV/A**2
 output         volume unit                     : A**3
 output   IR intensity unit                     : (D/A)**2/amu
 output         dipole unit                     : D
 output         efield unit                     : eV/A/e
 output        entropy unit                     : J/mol/K
  
 wavefunctions paging                           : none
 random number generator seed                   : randomised (185115866)
 data distribution                              : optimal for this architecture
 optimization strategy                          : maximize speed(+++)

 *********************** Exchange-Correlation Parameters ***********************
  
 using functional                               : Perdew Burke Ernzerhof
 relativistic treatment                         : Koelling-Harmon
 DFT+D: Semi-empirical dispersion correction    : off

 ************************* Pseudopotential Parameters **************************
  
 pseudopotential representation                 : reciprocal space
 <beta|phi> representation                      : reciprocal space
 spin-orbit coupling                            : off

 **************************** Basis Set Parameters *****************************
  
 plane wave basis set cut-off                   :   650.0000   eV
 size of standard grid                          :     1.7500
 size of   fine   gmax                          :    22.8577   1/A
 largest prime factor in FFT                    :          5
 finite basis set correction                    : none

 **************************** Electronic Parameters ****************************
  
 number of  electrons                           :  9.000    
 net charge of system                           :  0.000    
 treating system as non-spin-polarized
 number of bands                                :          7

 ********************* Electronic Minimization Parameters **********************
  
 Method: Treating system as metallic with density mixing treatment of electrons,
         and number of  SD  steps               :          1
         and number of  CG  steps               :          4
  
 total energy / atom convergence tol.           : 0.1000E-09   eV
 eigen-energy convergence tolerance             : 0.1429E-10   eV
 max force / atom convergence tol.              : ignored
 convergence tolerance window                   :          3   cycles
 max. number of SCF cycles                      :        100
 number of fixed-spin iterations                :         10
 smearing scheme                                : Gaussian
 smearing width                                 : 0.2000       eV
 Fermi energy convergence tolerance             : 0.2721E-13   eV
 periodic dipole correction                     : NONE

 ************************** Density Mixing Parameters **************************
  
 density-mixing scheme                          : Broyden
 max. length of mixing history                  :         20
 charge density mixing amplitude                : 0.8000    
 cut-off energy for mixing                      :  650.0       eV
 charge density mixing g-vector                 :  1.500       1/A

 *********************** Population Analysis Parameters ************************
  
 Population analysis with cutoff                :  3.000       A
 Population analysis output                     : summary and pdos components

 ******************************* Developer Code ********************************
  
 xc_bee: true
 xc_bee_rand_seed : 1
 xc_bee_num_trials: 5000

 *******************************************************************************
  
 
                           -------------------------------
                                      Unit Cell
                           -------------------------------
        Real Lattice(A)                      Reciprocal Lattice(1/A)
     4.5665140     0.0000000    -0.0000000        1.375925992   0.486462472   0.842576444
    -1.5221690     4.3053515     0.0000000       -0.000000000   1.459389624   0.842576444
    -1.5221690    -2.1526709     3.7285466        0.000000000  -0.000000000   1.685156710
 
                       Lattice parameters(A)       Cell Angles
                    a =      4.566514          alpha =  109.471190
                    b =      4.566514          beta  =  109.471190
                    c =      4.566514          gamma =  109.471190
 
                       Current cell volume =            73.304896       A**3
                                   density =             0.533365   AMU/A**3
                                           =             0.885674     g/cm^3
 
                           -------------------------------
                                     Cell Contents
                           -------------------------------
                         Total number of ions in cell =    1
                      Total number of species in cell =    1
                        Max number of any one species =    1
 
            xxxxxxxxxxxxxxxxxxxxxxxxxxxxxxxxxxxxxxxxxxxxxxxxxxxxxxxxxxxx
            x  Element    Atom        Fractional coordinates of atoms  x
            x            Number           u          v          w      x
            x----------------------------------------------------------x
            x  K            1         0.000000   0.000000   0.000000   x 
            xxxxxxxxxxxxxxxxxxxxxxxxxxxxxxxxxxxxxxxxxxxxxxxxxxxxxxxxxxxx
 
 
                         No user defined ionic velocities
 
                           -------------------------------
                                   Details of Species
                           -------------------------------
 
                               Mass of species in AMU
                                    K   39.0983000
 
                          Electric Quadrupole Moment (Barn)
                                    K    0.0585000 Isotope 39
 
                          Files used for pseudopotentials:
                                    K K_OTF.usp
 
                           -------------------------------
                              k-Points For BZ Sampling
                           -------------------------------
                       MP grid size for SCF calculation is 14 14 14
                            with an offset of   0.000  0.000  0.000
                       Number of kpoints used =           100
 
                           -------------------------------
                               Symmetry and Constraints
                           -------------------------------
 
                      Maximum deviation from symmetry = 0.470004E-14     ANG
 
                      Number of symmetry operations   =          48
                      Number of ionic constraints     =           3
                      Point group of crystal =    32: Oh, m-3m, 4/m -3 2/m
                      Space group of crystal =   229: Im-3m, -I 4 2 3
 
             Set iprint > 1 for details on symmetry rotations/translations
 
                         Centre of mass is constrained
             Set iprint > 1 for details of linear ionic constraints
 
                         Number of cell constraints= 4
                         Cell constraints are:  1 1 1 4 4 4
 
                         External pressure/stress (GPa)
                          0.00000   0.00000   0.00000
                                    0.00000   0.00000
                                              0.00000
  
+---------------- MEMORY AND SCRATCH DISK ESTIMATES PER PROCESS --------------+
|                                                     Memory          Disk    |
| Baseline code, static data and system overhead      341.0 MB         0.0 MB |
| BLAS internal memory storage                          0.0 MB         0.0 MB |
| Model and support data                               32.6 MB         0.0 MB |
| Electronic energy minimisation requirements          13.4 MB         0.0 MB |
| Force calculation requirements                        6.8 MB         0.0 MB |
| Stress calculation requirements                       7.5 MB         0.0 MB |
|                                               ----------------------------- |
| Approx. total storage required per process          387.0 MB         0.0 MB |
|                                                                             |
| Requirements will fluctuate during execution and may exceed these estimates |
+-----------------------------------------------------------------------------+
Calculating total energy with cut-off of  650.000 eV.
------------------------------------------------------------------------ <-- SCF
SCF loop      Energy           Fermi           Energy gain       Timer   <-- SCF
                               energy          per atom          (sec)   <-- SCF
------------------------------------------------------------------------ <-- SCF
Initial  -7.45082269E+002  0.00000000E+000                         0.93  <-- SCF
      1  -7.69199987E+002  4.58603671E+000   2.41177177E+001       1.23  <-- SCF
      2  -7.90501967E+002  2.01604730E+000   2.13019799E+001       1.45  <-- SCF
      3  -7.91423486E+002  1.66053776E+000   9.21518799E-001       1.74  <-- SCF
      4  -7.91453481E+002  1.62363369E+000   2.99947597E-002       2.16  <-- SCF
      5  -7.91454837E+002  1.59842687E+000   1.35608525E-003       2.58  <-- SCF
      6  -7.91454862E+002  1.59815969E+000   2.48417946E-005       2.98  <-- SCF
      7  -7.91454867E+002  1.59814274E+000   5.22329189E-006       3.39  <-- SCF
      8  -7.91454867E+002  1.59823204E+000   2.11099662E-007       3.80  <-- SCF
      9  -7.91454867E+002  1.59827131E+000   4.34788632E-008       4.20  <-- SCF
     10  -7.91454867E+002  1.59827503E+000   1.91763069E-009       4.57  <-- SCF
     11  -7.91454867E+002  1.59827646E+000  -2.82482198E-010       4.89  <-- SCF
     12  -7.91454867E+002  1.59827646E+000  -2.78421878E-011       5.16  <-- SCF
     13  -7.91454867E+002  1.59827643E+000  -1.27610028E-011       5.42  <-- SCF
------------------------------------------------------------------------ <-- SCF
 
Final energy, E             =  -791.4394070469     eV
Final free energy (E-TS)    =  -791.4548670066     eV
(energies not corrected for finite basis set)
 
NB est. 0K energy (E-0.5TS)      =  -791.4471370268     eV
 
 
 ******************** Symmetrised Forces ********************
 *                                                          *
 *               Cartesian components (eV/A)                *
 * -------------------------------------------------------- *
 *                         x            y            z      *
 *                                                          *
 * K               1      0.00000      0.00000      0.00000 *
 *                                                          *
 ************************************************************
 
 *********** Symmetrised Stress Tensor ***********
 *                                               *
 *          Cartesian components (GPa)           *
 * --------------------------------------------- *
 *             x             y             z     *
 *                                               *
 *  x     -0.022763     -0.000000     -0.000000  *
 *  y     -0.000000     -0.022763     -0.000000  *
 *  z     -0.000000     -0.000000     -0.022763  *
 *                                               *
 *  Pressure:    0.0228                          *
 *                                               *
 *************************************************
 
 Pseudo atomic calculation performed for K 3s2 3p6 4s1
 
 Converged in 35 iterations to a total energy of -790.3777 eV
Charge spilling parameter for spin component 1 = 0.26%
 
            Orbital Populations       
     Ion    Atom   Orbital             Charge
  -------------------------------------------
      K     1      S                    2.001
      K     1      Px                   2.001
      K     1      Py                   2.002
      K     1      Pz                   2.002
      K     1      S                    0.476
      K     1      Px                   0.106
      K     1      Py                   0.248
      K     1      Pz                   0.165
  -------------------------------------------
                           Total:       9.000
  -------------------------------------------
 
     Atomic Populations (Mulliken)
     -----------------------------
Species          Ion     s      p      d      f     Total  Charge (e)
=====================================================================
  K               1     2.48   6.52   0.00   0.00   9.00     0.00
=====================================================================
 
                 Bond                   Population      Length (A)
======================================================================
======================================================================
 
     Bayesian Error Estimate (BEE)
     -----------------------------
          Number of BEEF trials:    5000
               BEEF random seed:       1
   Self-consistent total energy:      -29.0854301320 Ha
      Self-consistent xc-energy:       -4.2952546311 Ha
   -----------------------------------------------------------------------------------------------------------
   trial #        BEEF parameters         xc energy (Ha)       xc corr (Ha)       total energy (Ha)           
   -----------------------------------------------------------------------------------------------------------
       1   0.87651   0.94912  -0.36863   -3.9544101107E+00    7.5981836906E-01   -2.8744585612E+01  <-- BEEF
       2   0.95127   0.49788   1.38676   -4.1900998681E+00    7.1287464286E-01   -2.8980275369E+01  <-- BEEF
       3   0.93220   0.69310   0.60979   -4.1357215002E+00    7.5328478842E-01   -2.8925897001E+01  <-- BEEF
       4   1.02841  -0.71849   4.01419   -4.1761660548E+00    8.7882803003E-01   -2.8966341556E+01  <-- BEEF
       5   1.02778   0.17833   2.33146   -4.4176007240E+00    7.7199079799E-01   -2.9207776225E+01  <-- BEEF
       6   1.05225   0.74046   1.35255   -4.6677727761E+00    7.1963536824E-01   -2.9457948277E+01  <-- BEEF
       7   0.93890   0.54894   0.99206   -4.1313993870E+00    7.5492413160E-01   -2.8921574888E+01  <-- BEEF
       8   0.87309  -0.87546   3.12422   -3.4520614212E+00    9.5668883490E-01   -2.8242236922E+01  <-- BEEF
       9   1.03755   0.09830   2.33762   -4.4190993688E+00    8.2403310958E-01   -2.9209274870E+01  <-- BEEF
      10   1.01309  -0.81375   4.24186   -4.0979365184E+00    8.6081700218E-01   -2.8888112019E+01  <-- BEEF
      11   0.95720   0.79686   0.19652   -4.2369472677E+00    8.1821524527E-01   -2.9027122769E+01  <-- BEEF
      12   1.00448   1.17047   0.30088   -4.5857697637E+00    6.6169644637E-01   -2.9375945265E+01  <-- BEEF
      13   0.98528   0.34933   1.57702   -4.2677876518E+00    7.9119343813E-01   -2.9057963153E+01  <-- BEEF
      14   1.06019  -0.39728   3.94001   -4.4285524985E+00    7.6805582490E-01   -2.9218727999E+01  <-- BEEF
      15   1.15730  -1.59678   6.18537   -4.4617666596E+00    1.0309410509E+00   -2.9251942160E+01  <-- BEEF
      16   0.75932   1.24617  -2.10084   -3.4957645509E+00    8.2900343941E-01   -2.8285940052E+01  <-- BEEF
      17   0.99945   0.23278   2.09420   -4.3153432674E+00    7.5920169872E-01   -2.9105518768E+01  <-- BEEF
      18   0.96462   0.76893   0.51799   -4.2809260136E+00    7.7364396362E-01   -2.9071101515E+01  <-- BEEF
      19   0.82793   0.56138  -0.02807   -3.6343880967E+00    8.2770765175E-01   -2.8424563598E+01  <-- BEEF
      20   1.09609   1.23525   0.32279   -4.9555517911E+00    7.3672973391E-01   -2.9745727292E+01  <-- BEEF
      21   1.23472  -1.16641   6.00101   -4.9213652273E+00    9.4355695107E-01   -2.9711540728E+01  <-- BEEF
      22   1.13115  -0.85696   5.00240   -4.5843632044E+00    8.6766650117E-01   -2.9374538705E+01  <-- BEEF
      23   1.16741  -1.07588   5.81659   -4.6953176169E+00    8.5282344250E-01   -2.9485493118E+01  <-- BEEF
      24   1.13329   0.21056   3.03744   -4.8858267467E+00    7.3598942774E-01   -2.9676002248E+01  <-- BEEF
      25   1.05404   0.14659   2.54623   -4.5201405204E+00    7.7526795530E-01   -2.9310316021E+01  <-- BEEF
      26   1.08000   0.98770   0.98599   -4.8464866494E+00    7.0402867240E-01   -2.9636662150E+01  <-- BEEF
      27   0.97783  -1.27926   4.44309   -3.7805659357E+00    1.0148137136E+00   -2.8570741437E+01  <-- BEEF
      28   0.90763   1.24033  -0.89669   -4.1504690068E+00    7.5990959031E-01   -2.8940644508E+01  <-- BEEF
      29   0.74985   1.96078  -2.89316   -3.7040813798E+00    6.1653526955E-01   -2.8494256881E+01  <-- BEEF
      30   1.03205  -0.14490   2.61552   -4.3166682159E+00    8.8383112734E-01   -2.9106843717E+01  <-- BEEF
      31   0.98056   0.01273   1.88910   -4.1302063219E+00    8.9289813600E-01   -2.8920381823E+01  <-- BEEF
      32   0.97392  -0.50655   2.98058   -3.9749648489E+00    9.2128182168E-01   -2.8765140350E+01  <-- BEEF
      33   0.92679   2.02140  -2.48280   -4.4228864269E+00    7.1673164956E-01   -2.9213061928E+01  <-- BEEF
      34   0.91723   0.43452   1.28950   -4.0274387278E+00    7.2415860785E-01   -2.8817614229E+01  <-- BEEF
      35   0.94595   0.53108   1.08002   -4.1575287615E+00    7.5419545830E-01   -2.8947704262E+01  <-- BEEF
      36   1.19502  -1.97531   7.07628   -4.5148103627E+00    1.0839967425E+00   -2.9304985864E+01  <-- BEEF
      37   1.05623   0.42006   1.62352   -4.5658643093E+00    8.3243712082E-01   -2.9356039810E+01  <-- BEEF
      38   0.85867   1.79970  -1.63965   -4.1486115704E+00    5.6831347464E-01   -2.8938787071E+01  <-- BEEF
      39   1.06237  -0.62274   3.73419   -4.3190189664E+00    9.3070935516E-01   -2.9109194467E+01  <-- BEEF
      40   1.06834  -0.32591   3.08495   -4.4135142322E+00    9.2252767807E-01   -2.9203689733E+01  <-- BEEF
      41   0.98351   0.85751   0.67776   -4.4041935504E+00    7.1740020546E-01   -2.9194369051E+01  <-- BEEF
      42   1.01694   1.09738   0.43753   -4.6120126916E+00    6.8582782074E-01   -2.9402188192E+01  <-- BEEF
      43   0.95790   1.61633  -1.24349   -4.4710035328E+00    7.0147737686E-01   -2.9261179034E+01  <-- BEEF
      44   0.83642   1.17901  -1.01270   -3.8493193334E+00    7.2821439308E-01   -2.8639494834E+01  <-- BEEF
      45   1.01204  -1.12116   4.13983   -3.9496651876E+00    1.0397582767E+00   -2.8739840688E+01  <-- BEEF
      46   1.09863  -0.44967   3.81637   -4.5367923235E+00    8.6875123248E-01   -2.9326967824E+01  <-- BEEF
      47   1.06049  -0.13907   3.06478   -4.4648395274E+00    8.2071440839E-01   -2.9255015028E+01  <-- BEEF
      48   1.06813   0.30416   2.44566   -4.6326149666E+00    7.3266857598E-01   -2.9422790468E+01  <-- BEEF
      49   0.99186   0.58988   1.09900   -4.3551368899E+00    7.7651298839E-01   -2.9145312391E+01  <-- BEEF
      50   0.93874   0.05283   1.56639   -3.9640241940E+00    8.8897072409E-01   -2.8754199695E+01  <-- BEEF
      51   0.78543   1.64820  -2.67532   -3.7178534112E+00    7.7556868239E-01   -2.8508028912E+01  <-- BEEF
      52   0.95559  -0.55770   2.83352   -3.8713725585E+00    9.5620535634E-01   -2.8661548059E+01  <-- BEEF
      53   1.07917   0.07837   2.82022   -4.6077735209E+00    7.8342299474E-01   -2.9397949022E+01  <-- BEEF
      54   0.92876   0.64474   0.56400   -4.0976042050E+00    7.8369758377E-01   -2.8887779706E+01  <-- BEEF
      55   0.79359   2.28004  -3.35557   -3.9650982569E+00    6.0381762739E-01   -2.8755273758E+01  <-- BEEF
      56   0.85441   0.99617  -0.95711   -3.8404987312E+00    8.3298233648E-01   -2.8630674232E+01  <-- BEEF
      57   0.93067   0.29059   1.69137   -4.0499028320E+00    7.2983146239E-01   -2.8840078333E+01  <-- BEEF
      58   1.03381   0.62317   1.41314   -4.5533310677E+00    7.4455510199E-01   -2.9343506569E+01  <-- BEEF
      59   0.89419   0.07835   1.41210   -3.7964017788E+00    8.5350277215E-01   -2.8586577280E+01  <-- BEEF
      60   0.90729   0.69472   0.27541   -4.0142055592E+00    7.9257222959E-01   -2.8804381060E+01  <-- BEEF
      61   1.03978   0.01951   2.21341   -4.3815741614E+00    8.9377023841E-01   -2.9171749662E+01  <-- BEEF
      62   0.84411   1.22738  -1.24120   -3.8785999024E+00    7.6118072172E-01   -2.8668775403E+01  <-- BEEF
      63   1.05591   0.12929   2.77457   -4.5399044871E+00    7.3809970021E-01   -2.9330079988E+01  <-- BEEF
      64   0.85772   0.97659  -0.37411   -3.8964094618E+00    7.2360772850E-01   -2.8686584963E+01  <-- BEEF
      65   0.92842   0.11640   1.08969   -3.9110241382E+00    9.4446488220E-01   -2.8701199639E+01  <-- BEEF
      66   1.00231  -0.88721   4.15452   -4.0178631470E+00    9.0392067552E-01   -2.8808038648E+01  <-- BEEF
      67   1.07227  -0.03156   2.80611   -4.5325621072E+00    8.3460927673E-01   -2.9322737608E+01  <-- BEEF
      68   1.05327  -0.94940   4.25486   -4.1882562124E+00    9.7766280624E-01   -2.8978431713E+01  <-- BEEF
      69   1.07128  -1.38661   5.41522   -4.1666116075E+00    9.7953652211E-01   -2.8956787108E+01  <-- BEEF
      70   0.90365  -0.14793   1.88590   -3.7743330074E+00    8.8150224396E-01   -2.8564508508E+01  <-- BEEF
      71   0.88982   1.57348  -1.08334   -4.2143202376E+00    6.0558433400E-01   -2.9004495739E+01  <-- BEEF
      72   0.93048   2.37192  -2.21276   -4.6149583250E+00    4.8319444978E-01   -2.9405133826E+01  <-- BEEF
      73   1.10807  -1.08810   5.37593   -4.4306666057E+00    8.7926246724E-01   -2.9220842107E+01  <-- BEEF
      74   0.92620   0.34490   1.11430   -4.0055420353E+00    8.1860922968E-01   -2.8795717536E+01  <-- BEEF
      75   0.85547   1.25027  -0.81969   -3.9685340900E+00    6.7405654811E-01   -2.8758709591E+01  <-- BEEF
      76   0.99346   1.02070  -0.27775   -4.4272007860E+00    8.4800856220E-01   -2.9217376287E+01  <-- BEEF
      77   0.93329   0.74849   0.11321   -4.1196377905E+00    8.3130614039E-01   -2.8909813291E+01  <-- BEEF
      78   0.75992   0.83583  -1.03052   -3.4133897424E+00    8.1460873404E-01   -2.8203565243E+01  <-- BEEF
      79   0.89040  -0.37870   2.11500   -3.6442750178E+00    9.3565534871E-01   -2.8434450519E+01  <-- BEEF
      80   0.96851   0.34459   1.49473   -4.1961951656E+00    7.9037138258E-01   -2.8986370666E+01  <-- BEEF
      81   0.96933  -0.11463   2.11023   -4.0523924916E+00    8.9787562209E-01   -2.8842567992E+01  <-- BEEF
      82   0.96767  -0.66510   3.86112   -3.9609633017E+00    8.0872983594E-01   -2.8751138803E+01  <-- BEEF
      83   0.93842  -0.00798   1.32487   -3.9144375467E+00    9.7114451813E-01   -2.8704613048E+01  <-- BEEF
      84   1.05545  -0.23278   3.26532   -4.4228929593E+00    8.2033121092E-01   -2.9213068460E+01  <-- BEEF
      85   0.96006  -0.33690   2.82466   -3.9842837293E+00    8.4967946010E-01   -2.8774459230E+01  <-- BEEF
      86   1.02494   1.53715  -0.88008   -4.7170603300E+00    7.4807872845E-01   -2.9507235831E+01  <-- BEEF
      87   1.14829  -0.26662   3.73965   -4.7944112844E+00    8.5188595058E-01   -2.9584586785E+01  <-- BEEF
      88   0.89544   0.69775   0.48261   -3.9902297734E+00    7.3246090112E-01   -2.8780405274E+01  <-- BEEF
      89   1.03576  -0.96496   4.63338   -4.1504491019E+00    8.8383199595E-01   -2.8940624603E+01  <-- BEEF
      90   1.12879  -0.93174   4.78472   -4.5232117045E+00    9.4947515970E-01   -2.9313387205E+01  <-- BEEF
      91   0.95611  -0.24086   1.91006   -3.9299622313E+00    9.8910993758E-01   -2.8720137732E+01  <-- BEEF
      92   0.99185  -1.51467   5.34288   -3.8095874267E+00    9.6288152212E-01   -2.8599762928E+01  <-- BEEF
      93   1.05307  -0.84048   4.35963   -4.2448289371E+00    8.9900760525E-01   -2.9035004438E+01  <-- BEEF
      94   1.08401  -1.23315   4.97630   -4.2419526890E+00    1.0091118159E+00   -2.9032128190E+01  <-- BEEF
      95   0.89433   1.00059  -0.40838   -4.0395021990E+00    7.6368837139E-01   -2.8829677700E+01  <-- BEEF
      96   0.94059   0.25010   1.03306   -4.0098614316E+00    9.0251342660E-01   -2.8800036933E+01  <-- BEEF
      97   1.03134  -0.98198   4.41863   -4.1073782444E+00    9.3268439789E-01   -2.8897553745E+01  <-- BEEF
      98   0.92302   1.05171  -0.47510   -4.1622724236E+00    7.8687225420E-01   -2.8952447925E+01  <-- BEEF
      99   1.00830   0.60717   1.10853   -4.4245113440E+00    7.8588014844E-01   -2.9214686845E+01  <-- BEEF
     100   1.02097   0.15316   1.82085   -4.3355274945E+00    8.8479252054E-01   -2.9125702995E+01  <-- BEEF
     101   0.94785  -0.48621   2.98555   -3.8877767573E+00    8.7753842075E-01   -2.8677952258E+01  <-- BEEF
     102   1.23479  -0.71246   5.23871   -5.0529833070E+00    8.7098486732E-01   -2.9843158808E+01  <-- BEEF
     103   0.91755   0.44738   0.68637   -3.9802206063E+00    8.4575195951E-01   -2.8770396107E+01  <-- BEEF
     104   0.86736   1.29396  -1.28635   -3.9899558806E+00    7.6510230418E-01   -2.8780131381E+01  <-- BEEF
     105   0.96637   2.37131  -2.69928   -4.7040220546E+00    6.3094080008E-01   -2.9494197555E+01  <-- BEEF
     106   1.00341   0.23949   2.28936   -4.3504360122E+00    7.1926029566E-01   -2.9140611513E+01  <-- BEEF
     107   0.85053  -0.75067   3.02112   -3.4141512025E+00    8.8629466671E-01   -2.8204326703E+01  <-- BEEF
     108   0.77757  -0.06496   0.80464   -3.2469447746E+00    9.1220672222E-01   -2.8037120275E+01  <-- BEEF
     109   1.05067   0.11442   2.05083   -4.4491010536E+00    8.9270680127E-01   -2.9239276554E+01  <-- BEEF
     110   0.97914   0.07942   1.71645   -4.1387922441E+00    8.9331950576E-01   -2.8928967745E+01  <-- BEEF
     111   0.81394   0.51470  -0.16740   -3.5495510321E+00    8.6405255408E-01   -2.8339726533E+01  <-- BEEF
     112   0.92959   1.69202  -1.57105   -4.3700888834E+00    6.9690147338E-01   -2.9160264384E+01  <-- BEEF
     113   1.23906  -1.70883   6.95411   -4.7842205833E+00    1.0267697940E+00   -2.9574396084E+01  <-- BEEF
     114   0.85572   1.75206  -2.26388   -4.0607924544E+00    7.2156640297E-01   -2.8850967955E+01  <-- BEEF
     115   1.12260  -1.15502   5.57697   -4.4730586546E+00    8.8911883847E-01   -2.9263234156E+01  <-- BEEF
     116   0.95985   0.27167   1.66305   -4.1471483577E+00    7.8163230949E-01   -2.8937323859E+01  <-- BEEF
     117   0.89519   1.36493  -0.81184   -4.1668032067E+00    6.6227501277E-01   -2.8956978708E+01  <-- BEEF
     118   0.99863   0.34914   1.66800   -4.3252989458E+00    7.8848926419E-01   -2.9115474447E+01  <-- BEEF
     119   1.17126  -1.15782   5.83966   -4.6756017286E+00    8.9496168127E-01   -2.9465777230E+01  <-- BEEF
     120   0.99712  -1.10392   3.58220   -3.8520191650E+00    1.1306363114E+00   -2.8642194666E+01  <-- BEEF
     121   1.03737   0.88830   0.91222   -4.6382410256E+00    7.1831758247E-01   -2.9428416526E+01  <-- BEEF
     122   0.85132   1.97550  -2.38115   -4.1322511244E+00    6.2569170470E-01   -2.8922426625E+01  <-- BEEF
     123   1.01439  -0.49642   3.71664   -4.1952936717E+00    8.1001262085E-01   -2.8985469173E+01  <-- BEEF
     124   1.23262  -0.08947   3.72228   -5.1831369079E+00    8.6827900978E-01   -2.9973312409E+01  <-- BEEF
     125   0.97627   0.38124   1.26825   -4.2207927024E+00    8.2905595240E-01   -2.9010968203E+01  <-- BEEF
     126   1.11006  -0.72971   4.00263   -4.4726351102E+00    9.8788166038E-01   -2.9262810611E+01  <-- BEEF
     127   0.95242   0.55625   1.22930   -4.2059286648E+00    7.1755170099E-01   -2.8996104166E+01  <-- BEEF
     128   0.95596  -0.31477   2.62405   -3.9608727927E+00    8.7572576754E-01   -2.8751048294E+01  <-- BEEF
     129   1.06170  -1.54567   5.35407   -4.0556827759E+00    1.0627477016E+00   -2.8845858277E+01  <-- BEEF
     130   1.14099  -0.90433   5.07585   -4.6065582974E+00    8.8869264867E-01   -2.9396733798E+01  <-- BEEF
     131   0.95760   1.33398  -0.24066   -4.4355283640E+00    6.3423292239E-01   -2.9225703865E+01  <-- BEEF
     132   1.13750  -0.95843   5.11355   -4.5732124408E+00    9.0430560003E-01   -2.9363387942E+01  <-- BEEF
     133   0.93609   0.44250   1.09656   -4.0835195461E+00    7.8422150403E-01   -2.8873695047E+01  <-- BEEF
     134   0.86540   0.00396   1.27703   -3.6449395669E+00    8.8496703852E-01   -2.8435115068E+01  <-- BEEF
     135   1.05787  -0.91954   4.41339   -4.2326435005E+00    9.3433803499E-01   -2.9022819001E+01  <-- BEEF
     136   0.93707  -0.14223   2.03529   -3.9140333630E+00    8.8816177184E-01   -2.8704208864E+01  <-- BEEF
     137   0.94654  -0.20141   2.14217   -3.9326508472E+00    9.0773871700E-01   -2.8722826348E+01  <-- BEEF
     138   1.12189   0.77227   1.26342   -4.9317569783E+00    8.0810910975E-01   -2.9721932479E+01  <-- BEEF
     139   1.05188   0.28476   2.01323   -4.5251340299E+00    8.1427506057E-01   -2.9315309531E+01  <-- BEEF
     140   1.00616  -0.62030   3.39345   -4.0813365030E+00    9.3226818519E-01   -2.8871512004E+01  <-- BEEF
     141   1.01897   1.64278  -0.70234   -4.7573286984E+00    6.4852738597E-01   -2.9547504199E+01  <-- BEEF
     142   0.91666   0.91230   0.30038   -4.1468537801E+00    6.8658093391E-01   -2.8937029281E+01  <-- BEEF
     143   0.80410   1.34374  -1.43959   -3.7638252368E+00    6.9379462209E-01   -2.8554000738E+01  <-- BEEF
     144   1.07326  -0.10690   3.06831   -4.5265787397E+00    8.1912398289E-01   -2.9316754241E+01  <-- BEEF
     145   1.02398  -0.11623   2.22475   -4.2643811291E+00    9.4190370328E-01   -2.9054556630E+01  <-- BEEF
     146   1.07406   0.03215   3.07046   -4.5909079076E+00    7.4790816627E-01   -2.9381083409E+01  <-- BEEF
     147   0.91518   1.31655  -1.09283   -4.1943643732E+00    7.7147032980E-01   -2.8984539874E+01  <-- BEEF
     148   1.23701   0.09440   3.68394   -5.2768611155E+00    7.8695847180E-01   -3.0067036616E+01  <-- BEEF
     149   0.83211   0.15103   1.11585   -3.5718880306E+00    8.0214796133E-01   -2.8362063532E+01  <-- BEEF
     150   0.77849   1.61712  -2.61397   -3.6839734241E+00    7.7003181352E-01   -2.8474148925E+01  <-- BEEF
     151   1.08670  -0.71424   4.35100   -4.4241285942E+00    8.7721363795E-01   -2.9214304095E+01  <-- BEEF
     152   0.99450   1.03636  -0.19319   -4.4455335953E+00    8.2328952837E-01   -2.9235709096E+01  <-- BEEF
     153   1.01108   0.04785   2.16869   -4.2837302739E+00    8.5318916330E-01   -2.9073905775E+01  <-- BEEF
     154   1.11872   0.14202   2.71879   -4.7731466908E+00    8.2090051750E-01   -2.9563322192E+01  <-- BEEF
     155   0.89022   0.48045   0.93999   -3.9162633493E+00    7.4118642975E-01   -2.8706438850E+01  <-- BEEF
     156   0.94851   1.10831  -0.04484   -4.3201188658E+00    6.9793994623E-01   -2.9110294367E+01  <-- BEEF
     157   0.87742   0.47528   0.23136   -3.8031017903E+00    8.7825435409E-01   -2.8593277291E+01  <-- BEEF
     158   0.84349   0.72932   0.25594   -3.7913644537E+00    7.0007341591E-01   -2.8581539955E+01  <-- BEEF
     159   1.04074  -0.75846   3.65318   -4.1719255137E+00    9.9120095310E-01   -2.8962101015E+01  <-- BEEF
     160   1.04679  -0.09625   2.83790   -4.4125814723E+00    8.2978864402E-01   -2.9202756973E+01  <-- BEEF
     161   1.03024   0.52924   1.29787   -4.4884543048E+00    8.1304636670E-01   -2.9278629806E+01  <-- BEEF
     162   1.10455   0.60818   2.18539   -4.8779502470E+00    6.7594247387E-01   -2.9668125748E+01  <-- BEEF
     163   1.12516   0.49912   2.22481   -4.9098382042E+00    7.4930288878E-01   -2.9700013705E+01  <-- BEEF
     164   0.99452  -0.92372   4.03942   -3.9626131180E+00    9.3753103543E-01   -2.8752788619E+01  <-- BEEF
     165   1.03464  -0.19234   2.23128   -4.2709423950E+00    9.9293941209E-01   -2.9061117896E+01  <-- BEEF
     166   0.94114  -0.52360   2.70838   -3.8216520229E+00    9.4730073110E-01   -2.8611827524E+01  <-- BEEF
     167   0.98191  -0.17711   2.32371   -4.0906075590E+00    9.0038472880E-01   -2.8880783060E+01  <-- BEEF
     168   0.97350  -0.32146   2.67004   -4.0269836164E+00    8.9107733691E-01   -2.8817159117E+01  <-- BEEF
     169   1.07037  -0.42542   3.30109   -4.3966218199E+00    9.3056897438E-01   -2.9186797321E+01  <-- BEEF
     170   1.00304  -0.28649   3.04745   -4.1856242325E+00    8.2951941697E-01   -2.8975799733E+01  <-- BEEF
     171   0.92260   0.83893   0.27155   -4.1339939340E+00    7.3787797336E-01   -2.8924169435E+01  <-- BEEF
     172   1.04876  -0.47029   3.42712   -4.3081370437E+00    9.0032464519E-01   -2.9098312545E+01  <-- BEEF
     173   1.15817  -0.64135   4.85112   -4.7657299097E+00    8.2184513596E-01   -2.9555905411E+01  <-- BEEF
     174   1.07542  -0.99480   4.71452   -4.2915100054E+00    9.3100247956E-01   -2.9081685506E+01  <-- BEEF
     175   0.97580  -0.87800   3.47172   -3.8625479097E+00    1.0111615066E+00   -2.8652723411E+01  <-- BEEF
     176   0.97992  -0.08414   2.02597   -4.0974805365E+00    9.1307941028E-01   -2.8887656037E+01  <-- BEEF
     177   0.88329   2.03030  -1.88359   -4.3193729086E+00    5.3142627603E-01   -2.9109548409E+01  <-- BEEF
     178   1.07702  -0.97568   4.71421   -4.3058287967E+00    9.2318219873E-01   -2.9096004298E+01  <-- BEEF
     179   0.98821   1.32224  -0.23289   -4.5444604288E+00    6.7644056604E-01   -2.9334635930E+01  <-- BEEF
     180   1.04536   0.13047   2.43974   -4.4713602885E+00    7.9543759603E-01   -2.9261535789E+01  <-- BEEF
     181   1.07060  -0.70631   3.80200   -4.3188127175E+00    9.6962121565E-01   -2.9108988218E+01  <-- BEEF
     182   1.06295  -0.05061   2.53905   -4.4657455082E+00    8.8953915299E-01   -2.9255921009E+01  <-- BEEF
     183   0.97399  -0.16660   2.32351   -4.0658777674E+00    8.8523067030E-01   -2.8856053268E+01  <-- BEEF
     184   1.07539   0.24266   2.69988   -4.6552364581E+00    7.1948295450E-01   -2.9445411959E+01  <-- BEEF
     185   1.02755  -0.12809   2.80397   -4.3242751941E+00    8.2965573241E-01   -2.9114450695E+01  <-- BEEF
     186   1.05728   0.52439   1.76332   -4.6281766269E+00    7.5027112534E-01   -2.9418352128E+01  <-- BEEF
     187   0.89711   0.73876  -0.33884   -3.9408509810E+00    8.8747733862E-01   -2.8731026482E+01  <-- BEEF
     188   1.02122  -0.20702   2.71095   -4.2577856538E+00    8.8228979692E-01   -2.9047961155E+01  <-- BEEF
     189   1.11289  -0.27167   3.51596   -4.6410307149E+00    8.5819891213E-01   -2.9431206216E+01  <-- BEEF
     190   1.12247  -0.30169   3.70602   -4.6803375240E+00    8.4523368163E-01   -2.9470513025E+01  <-- BEEF
     191   1.07412  -0.87265   4.21367   -4.2955470498E+00    9.7253208351E-01   -2.9085722551E+01  <-- BEEF
     192   0.93530   1.43644  -0.38167   -4.3853534750E+00    5.8371548905E-01   -2.9175528976E+01  <-- BEEF
     193   0.96826  -0.15227   2.22918   -4.0425318819E+00    8.9076370385E-01   -2.8832707383E+01  <-- BEEF
     194   0.93768  -0.30032   2.46985   -3.8856930497E+00    8.7838602999E-01   -2.8675868551E+01  <-- BEEF
     195   1.17450  -0.73620   4.37369   -4.7417332229E+00    9.9214796485E-01   -2.9531908724E+01  <-- BEEF
     196   0.87554   0.34472   0.12948   -3.7295641102E+00    9.6489384256E-01   -2.8519739611E+01  <-- BEEF
     197   1.14166  -0.81926   4.81473   -4.6230777360E+00    9.0097558027E-01   -2.9413253237E+01  <-- BEEF
     198   1.04347  -0.11288   2.52187   -4.3646507180E+00    9.0125622137E-01   -2.9154826219E+01  <-- BEEF
     199   0.89320   0.25200   0.62524   -3.7985958521E+00    9.2945317455E-01   -2.8588771353E+01  <-- BEEF
     200   0.80677   0.44421   0.05103   -3.5115558143E+00    8.4527276641E-01   -2.8301731315E+01  <-- BEEF
     201   0.97434   1.39206  -0.39142   -4.5095632278E+00    6.5688242986E-01   -2.9299738729E+01  <-- BEEF
     202   1.01015   0.09227   2.33219   -4.3144770261E+00    7.9446692997E-01   -2.9104652527E+01  <-- BEEF
     203   0.95714  -0.18915   2.34062   -3.9950819117E+00    8.7243800690E-01   -2.8785257413E+01  <-- BEEF
     204   0.95328   1.35299  -0.17843   -4.4334812006E+00    6.0590239997E-01   -2.9223656702E+01  <-- BEEF
     205   0.92528   0.87072  -0.02444   -4.1314085154E+00    7.8753447775E-01   -2.8921584016E+01  <-- BEEF
     206   0.86149   1.13854  -0.81045   -3.9424913191E+00    7.3717205972E-01   -2.8732666820E+01  <-- BEEF
     207   0.87175   0.03659   1.38499   -3.6924721615E+00    8.5308725856E-01   -2.8482647662E+01  <-- BEEF
     208   0.96872  -1.04592   4.22745   -3.8301672788E+00    9.2888204743E-01   -2.8620342780E+01  <-- BEEF
     209   1.02271  -0.54773   3.79863   -4.2108762273E+00    8.2937977483E-01   -2.9001051728E+01  <-- BEEF
     210   1.10285  -0.09332   2.63979   -4.6037809509E+00    9.3948784936E-01   -2.9393956452E+01  <-- BEEF
     211   1.12237  -1.00862   5.12828   -4.4964305511E+00    9.0841287228E-01   -2.9286606052E+01  <-- BEEF
     212   0.82461   0.91331  -0.95430   -3.6939352411E+00    8.3834942332E-01   -2.8484110742E+01  <-- BEEF
     213   0.88910   0.54276   0.36534   -3.8880540809E+00    8.2946240023E-01   -2.8678229582E+01  <-- BEEF
     214   0.91782   2.11635  -2.22373   -4.4546588775E+00    6.0175881159E-01   -2.9244834378E+01  <-- BEEF
     215   0.81728   0.70203  -0.08759   -3.6514988475E+00    7.5460587310E-01   -2.8441674348E+01  <-- BEEF
     216   1.01093   0.36744   1.48971   -4.3629302555E+00    8.3202245928E-01   -2.9153105756E+01  <-- BEEF
     217   0.96884  -0.11456   2.89845   -4.1212342067E+00    7.3015989216E-01   -2.8911409708E+01  <-- BEEF
     218   1.00086   0.92446   0.27012   -4.4613809035E+00    7.9068313145E-01   -2.9251556404E+01  <-- BEEF
     219   1.07181  -0.68805   3.77660   -4.3290416050E+00    9.6707193007E-01   -2.9119217106E+01  <-- BEEF
     220   0.98180   0.77958   0.52639   -4.3500331076E+00    7.8759280744E-01   -2.9140208608E+01  <-- BEEF
     221   1.16102  -1.27006   5.92968   -4.5963628446E+00    9.2115272356E-01   -2.9386538345E+01  <-- BEEF
     222   0.98929   1.86098  -1.56179   -4.6663575670E+00    6.8146339361E-01   -2.9456533068E+01  <-- BEEF
     223   1.05733  -0.88789   4.14181   -4.2202128569E+00    9.7489598023E-01   -2.9010388358E+01  <-- BEEF
     224   0.91567  -0.31820   2.06146   -3.7596863963E+00    9.4698612238E-01   -2.8549861897E+01  <-- BEEF
     225   1.13222  -0.91064   5.22016   -4.5842343689E+00    8.5053453961E-01   -2.9374409870E+01  <-- BEEF
     226   1.10223  -1.17908   5.17169   -4.3507185208E+00    9.6228925258E-01   -2.9140894022E+01  <-- BEEF
     227   0.97933  -0.15598   2.29673   -4.0879341105E+00    8.9201977347E-01   -2.8878109611E+01  <-- BEEF
     228   1.17524  -0.75169   4.74487   -4.7709150806E+00    9.2237920476E-01   -2.9561090582E+01  <-- BEEF
     229   1.01343   0.98666   0.47856   -4.5539899988E+00    7.2992929978E-01   -2.9344165500E+01  <-- BEEF
     230   1.04938  -0.63266   3.95952   -4.2867088666E+00    8.7202747795E-01   -2.9076884368E+01  <-- BEEF
     231   1.01808   1.35322  -0.24724   -4.6674354942E+00    7.0037387254E-01   -2.9457610995E+01  <-- BEEF
     232   0.87664   1.55321  -1.62391   -4.1081573751E+00    7.1435000609E-01   -2.8898332876E+01  <-- BEEF
     233   0.95155   0.97000   0.61169   -4.3293789041E+00    6.3390230671E-01   -2.9119554405E+01  <-- BEEF
     234   0.99413  -0.01639   2.42787   -4.2159111571E+00    8.1047450481E-01   -2.9006086658E+01  <-- BEEF
     235   1.03791  -0.99351   3.91584   -4.0815603785E+00    1.0533064418E+00   -2.8871735879E+01  <-- BEEF
     236   1.12880  -0.16506   3.58837   -4.7533422260E+00    8.0748882187E-01   -2.9543517727E+01  <-- BEEF
     237   1.19092  -0.87760   5.12967   -4.8080977062E+00    9.2514311614E-01   -2.9598273207E+01  <-- BEEF
     238   1.01012  -0.53695   3.97969   -4.1851974067E+00    7.6988908723E-01   -2.8975372908E+01  <-- BEEF
     239   0.91054   0.79537  -0.13755   -4.0335165218E+00    8.3218035883E-01   -2.8823692023E+01  <-- BEEF
     240   1.01316   0.39223   1.48777   -4.3819282588E+00    8.2239833919E-01   -2.9172103760E+01  <-- BEEF
     241   0.99478  -0.11433   2.28162   -4.1621570690E+00    8.9281592861E-01   -2.8952332570E+01  <-- BEEF
     242   0.93833   0.08525   1.68334   -3.9872304728E+00    8.4694281791E-01   -2.8777405974E+01  <-- BEEF
     243   1.07329   0.67166   1.39284   -4.7190683491E+00    7.7257701969E-01   -2.9509243850E+01  <-- BEEF
     244   0.94293   1.04270   0.10719   -4.2842170059E+00    6.9267875038E-01   -2.9074392507E+01  <-- BEEF
     245   0.92767   0.48635   1.31188   -4.0908948648E+00    7.0555325584E-01   -2.8881070366E+01  <-- BEEF
     246   0.98869   0.59951   0.59922   -4.3028611188E+00    8.7357177769E-01   -2.9093036620E+01  <-- BEEF
     247   0.91720   1.19072  -0.56253   -4.1940326181E+00    7.2649375872E-01   -2.8984208119E+01  <-- BEEF
     248   0.98536  -0.00277   2.17533   -4.1667795864E+00    8.4614143787E-01   -2.8956955087E+01  <-- BEEF
     249   0.98385   0.06436   1.70607   -4.1486800006E+00    9.0910604622E-01   -2.8938855501E+01  <-- BEEF
     250   0.94925   1.44536  -1.16497   -4.3707689405E+00    7.6236190269E-01   -2.9160944441E+01  <-- BEEF
     251   1.02775  -0.59514   3.53019   -4.1846286170E+00    9.1695657976E-01   -2.8974804118E+01  <-- BEEF
     252   0.98820  -0.02482   2.07295   -4.1584250890E+00    8.8272622346E-01   -2.8948600590E+01  <-- BEEF
     253   0.93289   1.37045  -0.81818   -4.3082880069E+00    7.0731136992E-01   -2.9098463508E+01  <-- BEEF
     254   0.94412  -0.76007   3.41725   -3.7921955590E+00    9.2274106080E-01   -2.8582371060E+01  <-- BEEF
     255   0.92876   0.80440   0.07244   -4.1237960672E+00    8.0550713207E-01   -2.8913971568E+01  <-- BEEF
     256   0.96527   0.67147   0.99867   -4.2835658851E+00    7.2285971999E-01   -2.9073741386E+01  <-- BEEF
     257   0.95139   0.26721   1.34229   -4.0850915910E+00    8.4147112181E-01   -2.8875267092E+01  <-- BEEF
     258   0.94504   1.03228  -0.25793   -4.2547325534E+00    7.7804895442E-01   -2.9044908054E+01  <-- BEEF
     259   1.04488  -0.19318   3.32062   -4.4061218309E+00    7.7513076589E-01   -2.9196297332E+01  <-- BEEF
     260   0.97331   0.05776   2.40684   -4.1695321051E+00    7.5096445499E-01   -2.8959707606E+01  <-- BEEF
     261   0.96959   0.18827   1.42751   -4.1254184511E+00    8.8661559651E-01   -2.8915593952E+01  <-- BEEF
     262   1.00267   1.01175   0.74889   -4.5493818771E+00    6.4639439582E-01   -2.9339557378E+01  <-- BEEF
     263   0.99239  -1.07039   4.76597   -3.9553095324E+00    8.5658023058E-01   -2.8745485033E+01  <-- BEEF
     264   1.03804  -0.53451   3.79174   -4.2728665944E+00    8.4294875103E-01   -2.9063042095E+01  <-- BEEF
     265   0.93131   0.71450   0.91017   -4.1687567847E+00    6.7748052654E-01   -2.8958932286E+01  <-- BEEF
     266   1.07672   0.44768   2.46584   -4.7293972275E+00    6.6495770589E-01   -2.9519572728E+01  <-- BEEF
     267   1.09872  -0.72688   3.92004   -4.4245027590E+00    9.8993351273E-01   -2.9214678260E+01  <-- BEEF
     268   1.05042   0.48958   1.74484   -4.5858130380E+00    7.6368672161E-01   -2.9375988539E+01  <-- BEEF
     269   0.99675   0.89180   0.33591   -4.4377068100E+00    7.8851572219E-01   -2.9227882311E+01  <-- BEEF
     270   0.93131   0.69570   0.99747   -4.1683106812E+00    6.6867677383E-01   -2.8958486182E+01  <-- BEEF
     271   0.91448   1.92734  -2.33659   -4.3490095622E+00    7.1907526447E-01   -2.9139185063E+01  <-- BEEF
     272   0.95853   1.96154  -1.60884   -4.5924321221E+00    6.0156915168E-01   -2.9382607623E+01  <-- BEEF
     273   1.03615   0.22439   1.88120   -4.4284983671E+00    8.5399238062E-01   -2.9218673868E+01  <-- BEEF
     274   1.07459  -0.12968   2.95773   -4.5115863838E+00    8.5596357914E-01   -2.9301761885E+01  <-- BEEF
     275   0.91208   0.17780   1.66839   -3.9293787230E+00    7.6995145119E-01   -2.8719554224E+01  <-- BEEF
     276   1.08723   0.18114   2.73299   -4.6749871727E+00    7.5882536062E-01   -2.9465162674E+01  <-- BEEF
     277   1.06653   0.12918   2.41515   -4.5469980019E+00    8.2745536091E-01   -2.9337173503E+01  <-- BEEF
     278   0.89521   0.38309   0.73901   -3.8739003428E+00    8.4017925545E-01   -2.8664075844E+01  <-- BEEF
     279   0.88246   1.61951  -1.70775   -4.1513398112E+00    7.0508703848E-01   -2.8941515312E+01  <-- BEEF
     280   1.07823  -0.16839   3.09627   -4.5204526181E+00    8.5106731378E-01   -2.9310628119E+01  <-- BEEF
     281   0.89685  -0.31369   2.49793   -3.7310996898E+00    8.2891857469E-01   -2.8521275191E+01  <-- BEEF
     282   1.01526   0.24206   1.65323   -4.3384671229E+00    8.6739804701E-01   -2.9128642624E+01  <-- BEEF
     283   1.02254   0.81564   0.89086   -4.5494404547E+00    7.4202368131E-01   -2.9339615956E+01  <-- BEEF
     284   0.99386   0.43326   1.22760   -4.3051867546E+00    8.3254255507E-01   -2.9095362256E+01  <-- BEEF
     285   1.04924   0.22203   1.98866   -4.4855862414E+00    8.4859432417E-01   -2.9275761742E+01  <-- BEEF
     286   0.93311  -0.19400   2.63329   -3.9301632776E+00    7.8323662393E-01   -2.8720338778E+01  <-- BEEF
     287   0.96343  -0.27725   2.72440   -4.0140051668E+00    8.4431328469E-01   -2.8804180668E+01  <-- BEEF
     288   1.11759   0.09717   3.30621   -4.8018963594E+00    7.1815074971E-01   -2.9592071860E+01  <-- BEEF
     289   1.01180   2.25634  -1.56364   -4.9235025956E+00    5.0565226542E-01   -2.9713678096E+01  <-- BEEF
     290   0.95994   0.18647   1.74635   -4.1174615461E+00    8.0804789912E-01   -2.8907637047E+01  <-- BEEF
     291   1.04570   0.04606   2.30850   -4.4237113740E+00    8.6722301257E-01   -2.9213886875E+01  <-- BEEF
     292   0.97846   0.08795   2.18099   -4.1816639613E+00    7.8962370398E-01   -2.8971839462E+01  <-- BEEF
     293   0.95810   0.58063   1.32537   -4.2462964764E+00    6.9162313388E-01   -2.9036471977E+01  <-- BEEF
     294   1.04160   0.06835   2.38160   -4.4248926704E+00    8.3517092961E-01   -2.9215068171E+01  <-- BEEF
     295   1.05354   1.34086   0.28357   -4.8408815507E+00    6.3801741704E-01   -2.9631057052E+01  <-- BEEF
     296   0.82824   1.81320  -2.40107   -3.9736148545E+00    6.8516713083E-01   -2.8763790355E+01  <-- BEEF
     297   0.97284   0.61791   1.08135   -4.2954535217E+00    7.4231571118E-01   -2.9085629023E+01  <-- BEEF
     298   1.01708   0.46574   1.56828   -4.4359943109E+00    7.7224118642E-01   -2.9226169812E+01  <-- BEEF
     299   1.05542  -0.51369   3.33188   -4.3051866569E+00    9.5113356171E-01   -2.9095362158E+01  <-- BEEF
     300   1.04294  -0.47926   3.47580   -4.2870156156E+00    8.8745647372E-01   -2.9077191117E+01  <-- BEEF
     301   1.16970  -1.98224   7.26420   -4.4348272308E+00    1.0164857047E+00   -2.9225002732E+01  <-- BEEF
     302   1.04553   0.51175   1.46172   -4.5520590530E+00    8.0621473867E-01   -2.9342234554E+01  <-- BEEF
     303   1.16102  -1.34737   6.26858   -4.5927464982E+00    8.8921494858E-01   -2.9382921999E+01  <-- BEEF
     304   0.95212   0.88602   0.56084   -4.2899922043E+00    6.8871875155E-01   -2.9080167705E+01  <-- BEEF
     305   1.00329  -0.45061   2.97569   -4.1079366570E+00    9.2972346378E-01   -2.8898112158E+01  <-- BEEF
     306   1.06964   1.31360   0.17257   -4.8785796821E+00    6.9548715720E-01   -2.9668755183E+01  <-- BEEF
     307   0.95909   0.53610   1.29810   -4.2279363250E+00    7.2160389065E-01   -2.9018111826E+01  <-- BEEF
     308   0.93290   0.93964  -0.28048   -4.1670003990E+00    8.1564054939E-01   -2.8957175900E+01  <-- BEEF
     309   1.04433   0.16473   2.25527   -4.4660742650E+00    8.1558640915E-01   -2.9256249766E+01  <-- BEEF
     310   1.03458  -0.04715   2.21510   -4.3331530529E+00    9.2138621181E-01   -2.9123328554E+01  <-- BEEF
     311   1.07323   1.37796  -0.29492   -4.8783183707E+00    7.6580695159E-01   -2.9668493872E+01  <-- BEEF
     312   1.05000  -0.22851   2.97569   -4.3786379070E+00    8.7278838125E-01   -2.9168813408E+01  <-- BEEF
     313   0.72983   1.57527  -1.91917   -3.5476129989E+00    5.8428381013E-01   -2.8337788500E+01  <-- BEEF
     314   1.01504  -0.08180   2.73933   -4.2925145600E+00    8.0403092439E-01   -2.9082690061E+01  <-- BEEF
     315   0.93343   0.03002   1.60966   -3.9381985443E+00    8.8501536597E-01   -2.8728374045E+01  <-- BEEF
     316   1.03057   0.42418   1.70524   -4.4799571206E+00    7.8130991883E-01   -2.9270132621E+01  <-- BEEF
     317   1.11616  -0.88604   4.69279   -4.4883172098E+00    9.2979331273E-01   -2.9278492711E+01  <-- BEEF
     318   0.75269   1.57045  -2.19409   -3.6055099124E+00    6.7325871167E-01   -2.8395685413E+01  <-- BEEF
     319   0.94891   0.42077   0.84569   -4.0989637149E+00    8.6443383285E-01   -2.8889139216E+01  <-- BEEF
     320   1.04958  -0.30111   3.61831   -4.4027246666E+00    7.7352562413E-01   -2.9192900168E+01  <-- BEEF
     321   1.06853  -1.58723   5.67437   -4.0913874945E+00    1.0247284109E+00   -2.8881562995E+01  <-- BEEF
     322   1.05597  -0.27277   2.72051   -4.3584284833E+00    9.5708769408E-01   -2.9148603984E+01  <-- BEEF
     323   1.01473  -0.04424   2.05762   -4.2467819272E+00    9.2875327366E-01   -2.9036957428E+01  <-- BEEF
     324   0.94792   0.75158   0.51495   -4.2111861400E+00    7.6262883126E-01   -2.9001361641E+01  <-- BEEF
     325   0.90658   0.44786   0.69150   -3.9402761237E+00    8.3087829597E-01   -2.8730451625E+01  <-- BEEF
     326   0.95948   0.64141   0.78697   -4.2299287089E+00    7.7609122091E-01   -2.9020104210E+01  <-- BEEF
     327   1.03117  -0.31478   3.27953   -4.2981574257E+00    8.2964866437E-01   -2.9088332927E+01  <-- BEEF
     328   1.10602  -0.90862   4.66201   -4.4380639164E+00    9.3544832978E-01   -2.9228239417E+01  <-- BEEF
     329   1.01153   0.39284   1.61652   -4.3877037121E+00    7.9278287940E-01   -2.9177879213E+01  <-- BEEF
     330   1.12305  -1.30981   5.74795   -4.4219502031E+00    9.3330024033E-01   -2.9212125704E+01  <-- BEEF
     331   0.97561   0.65414   0.99235   -4.3136574942E+00    7.4590176856E-01   -2.9103832995E+01  <-- BEEF
     332   0.82615  -0.67217   2.46418   -3.3084728337E+00    9.3373528372E-01   -2.8098648335E+01  <-- BEEF
     333   1.00384  -0.42544   3.39275   -4.1584159958E+00    8.2901380260E-01   -2.8948591497E+01  <-- BEEF
     334   0.85716   0.25125   0.49947   -3.6535224196E+00    9.1200783987E-01   -2.8443697920E+01  <-- BEEF
     335   1.03956  -1.11169   4.49146   -4.0872698937E+00    9.9431733859E-01   -2.8877445395E+01  <-- BEEF
     336   0.88751   0.62440   0.49246   -3.9294469900E+00    7.5842676808E-01   -2.8719622491E+01  <-- BEEF
     337   0.96769   0.41875   0.90544   -4.1729982306E+00    8.7600569181E-01   -2.8963173731E+01  <-- BEEF
     338   1.08519   0.48936   1.61414   -4.7027768532E+00    8.3442847598E-01   -2.9492952354E+01  <-- BEEF
     339   1.19366  -1.25338   6.22192   -4.7508082477E+00    8.9090625115E-01   -2.9540983749E+01  <-- BEEF
     340   1.07070   0.36744   2.24532   -4.6520287033E+00    7.4566059782E-01   -2.9442204204E+01  <-- BEEF
     341   0.91625   1.16937  -0.78130   -4.1615163967E+00    7.8270889188E-01   -2.8951691898E+01  <-- BEEF
     342   0.85297   0.94937  -0.45447   -3.8596072534E+00    7.4880799493E-01   -2.8649782754E+01  <-- BEEF
     343   0.98761   1.78541  -1.03510   -4.6741062031E+00    6.0674744573E-01   -2.9464281704E+01  <-- BEEF
     344   1.12755   0.16464   2.57967   -4.8033534649E+00    8.4962589722E-01   -2.9593528966E+01  <-- BEEF
     345   1.00199   0.00063   2.45841   -4.2552753392E+00    8.0492917822E-01   -2.9045450840E+01  <-- BEEF
     346   1.01236  -1.06194   4.04080   -3.9680220155E+00    1.0305815700E+00   -2.8758197516E+01  <-- BEEF
     347   1.00306   0.89755   0.72401   -4.4983811919E+00    7.1108337974E-01   -2.9288556693E+01  <-- BEEF
     348   0.95942   0.46651   0.77482   -4.1516676537E+00    8.6883339519E-01   -2.8941843155E+01  <-- BEEF
     349   1.04027   0.39056   1.51485   -4.4840286341E+00    8.5099045679E-01   -2.9274204135E+01  <-- BEEF
     350   1.00560   1.19441   0.02713   -4.5759083630E+00    7.0874469975E-01   -2.9366083864E+01  <-- BEEF
     351   1.13238   0.09289   2.85800   -4.8146076617E+00    8.3361046512E-01   -2.9604783163E+01  <-- BEEF
     352   0.92335   1.44153  -1.47705   -4.2451921277E+00    7.9851422661E-01   -2.9035367629E+01  <-- BEEF
     353   1.11578  -0.35230   3.82711   -4.6441419783E+00    8.3742250003E-01   -2.9434317479E+01  <-- BEEF
     354   0.97391  -0.07678   2.21207   -4.0951369188E+00    8.6241209869E-01   -2.8885312420E+01  <-- BEEF
     355   0.96991  -0.43325   3.19427   -4.0115211305E+00    8.3322134964E-01   -2.8801696631E+01  <-- BEEF
     356   0.94792   0.74587   0.65963   -4.2216255709E+00    7.3490206398E-01   -2.9011801072E+01  <-- BEEF
     357   0.77175   0.92730  -0.78310   -3.5196065072E+00    7.2956935409E-01   -2.8309782008E+01  <-- BEEF
     358   1.03629   1.19208  -0.11191   -4.6761316867E+00    7.7732225765E-01   -2.9466307188E+01  <-- BEEF
     359   0.94726   0.74671   0.98286   -4.2485309453E+00    6.6514853682E-01   -2.9038706446E+01  <-- BEEF
     360   0.97284   0.43315   1.05826   -4.2120934851E+00    8.4254131222E-01   -2.9002268986E+01  <-- BEEF
     361   0.86068   0.60135   0.10245   -3.7849846846E+00    8.1985490672E-01   -2.8575160185E+01  <-- BEEF
     362   0.90066  -0.44290   2.73918   -3.7099762620E+00    8.4915415720E-01   -2.8500151763E+01  <-- BEEF
     363   1.01984   0.13786   1.89904   -4.3316328705E+00    8.7472616170E-01   -2.9121808371E+01  <-- BEEF
     364   1.03432  -0.46152   3.55272   -4.2697814708E+00    8.5135457364E-01   -2.9059956972E+01  <-- BEEF
     365   0.85972   0.19820   0.85692   -3.6716839603E+00    8.6677164190E-01   -2.8461859461E+01  <-- BEEF
     366   1.00827  -0.48782   2.56895   -4.0735401523E+00    1.0412750344E+00   -2.8863715653E+01  <-- BEEF
     367   0.98022   0.21436   1.68141   -4.1990269157E+00    8.3246022043E-01   -2.8989202417E+01  <-- BEEF
     368   1.02942   0.14275   2.45603   -4.4191725809E+00    7.6597133575E-01   -2.9209348082E+01  <-- BEEF
     369   1.01804   0.08811   1.88076   -4.3014457245E+00    9.0204319294E-01   -2.9091621225E+01  <-- BEEF
     370   1.05882  -1.33761   4.78576   -4.0855921537E+00    1.0722834665E+00   -2.8875767655E+01  <-- BEEF
     371   1.00773   0.35449   1.51178   -4.3473434530E+00    8.3006739548E-01   -2.9137518954E+01  <-- BEEF
     372   0.87773   1.62699  -1.22621   -4.1802788556E+00    5.9332777776E-01   -2.8970454356E+01  <-- BEEF
     373   1.21535  -0.14821   3.65538   -5.0873208707E+00    8.9144372045E-01   -2.9877496372E+01  <-- BEEF
     374   1.00286   1.44135  -0.23648   -4.6507710717E+00    6.3382009435E-01   -2.9440946573E+01  <-- BEEF
     375   0.94848   0.44330   1.21469   -4.1403425210E+00    7.7406375012E-01   -2.8930518022E+01  <-- BEEF
     376   0.91199   1.26140  -0.86495   -4.1787292071E+00    7.4769408621E-01   -2.8968904708E+01  <-- BEEF
     377   1.15199  -1.10281   5.28474   -4.5787313529E+00    9.6041665971E-01   -2.9368906854E+01  <-- BEEF
     378   0.99075   0.02210   2.08760   -4.1898362173E+00    8.5856049778E-01   -2.8980011718E+01  <-- BEEF
     379   1.12993   0.09096   2.43062   -4.7663971746E+00    9.2216949694E-01   -2.9556572676E+01  <-- BEEF
     380   1.08859  -1.23830   5.10319   -4.2680002257E+00    9.9051904415E-01   -2.9058175727E+01  <-- BEEF
     381   0.97561   1.37208  -0.62809   -4.4842692682E+00    7.1891935652E-01   -2.9274444769E+01  <-- BEEF
     382   1.02261   0.67727   1.23844   -4.5199802081E+00    7.3983715574E-01   -2.9310155709E+01  <-- BEEF
     383   1.03496  -0.79036   3.84645   -4.1537841876E+00    9.5955416983E-01   -2.8943959688E+01  <-- BEEF
     384   1.04345  -0.96208   4.49921   -4.1681905276E+00    9.2028213729E-01   -2.8958366029E+01  <-- BEEF
     385   1.02827  -0.15121   2.60079   -4.2985682410E+00    8.8554376084E-01   -2.9088743742E+01  <-- BEEF
     386   0.97717   1.21898  -0.19162   -4.4618259604E+00    7.0733770547E-01   -2.9252001461E+01  <-- BEEF
     387   1.05991  -0.48564   3.26640   -4.3283010696E+00    9.5608423022E-01   -2.9118476570E+01  <-- BEEF
     388   1.02092   0.08578   2.04249   -4.3255490937E+00    8.7251828055E-01   -2.9115724595E+01  <-- BEEF
     389   0.89648   1.56305  -1.18452   -4.2253485382E+00    6.4063625592E-01   -2.9015524039E+01  <-- BEEF
     390   1.07456  -0.19390   3.49019   -4.5309324212E+00    7.7619953497E-01   -2.9321107922E+01  <-- BEEF
     391   1.10856   0.79643   1.20745   -4.8879830776E+00    7.9104268757E-01   -2.9678158579E+01  <-- BEEF
     392   0.90607   0.37871   1.25167   -3.9581623021E+00    7.4719743947E-01   -2.8748337803E+01  <-- BEEF
     393   0.94454   0.61142   0.44152   -4.1304431025E+00    8.4634061309E-01   -2.8920618603E+01  <-- BEEF
     394   1.10203  -0.75533   4.16502   -4.4461850211E+00    9.5677359212E-01   -2.9236360522E+01  <-- BEEF
     395   0.85984   0.45156   0.93100   -3.7902253592E+00    7.2049051119E-01   -2.8580400860E+01  <-- BEEF
     396   1.04189  -0.31969   3.27304   -4.3351340183E+00    8.4679857324E-01   -2.9125309519E+01  <-- BEEF
     397   1.06571   0.84409   1.15616   -4.7456377336E+00    7.2441664277E-01   -2.9535813234E+01  <-- BEEF
     398   0.83613   1.32948  -0.77050   -3.9361301423E+00    5.9887618848E-01   -2.8726305643E+01  <-- BEEF
     399   1.11580  -0.98298   4.85856   -4.4591927682E+00    9.4423414960E-01   -2.9249368269E+01  <-- BEEF
     400   1.02418   0.39926   1.45123   -4.4225557335E+00    8.4011805298E-01   -2.9212731234E+01  <-- BEEF
     401   1.00033  -0.53382   2.82513   -4.0468462508E+00    1.0009023284E+00   -2.8837021752E+01  <-- BEEF
     402   0.96787   0.92253   0.51451   -4.3602340954E+00    6.9914221953E-01   -2.9150409596E+01  <-- BEEF
     403   0.90181   0.90507  -0.41130   -4.0249109510E+00    8.2282271236E-01   -2.8815086452E+01  <-- BEEF
     404   1.12827  -0.22108   3.62062   -4.7296193009E+00    8.2889565316E-01   -2.9519794802E+01  <-- BEEF
     405   1.00500  -0.17876   2.32261   -4.1753191562E+00    9.2998549185E-01   -2.8965494657E+01  <-- BEEF
     406   1.01099   1.11530   0.45530   -4.5994716703E+00    6.6547336741E-01   -2.9389647171E+01  <-- BEEF
     407   0.91788   0.29890   1.41559   -3.9814610644E+00    7.6820389355E-01   -2.8771636565E+01  <-- BEEF
     408   1.04799   0.56559   1.55903   -4.5935863151E+00    7.6084500209E-01   -2.9383761816E+01  <-- BEEF
     409   1.11390   0.03247   3.28312   -4.7576883513E+00    7.5186865781E-01   -2.9547863852E+01  <-- BEEF
     410   0.96399   0.60930   0.58784   -4.2146507175E+00    8.4043014024E-01   -2.9004826218E+01  <-- BEEF
     411   0.84243   1.95920  -2.55933   -4.0762065416E+00    6.6089846528E-01   -2.8866382042E+01  <-- BEEF
     412   0.87926   0.14845   0.89999   -3.7260574338E+00    9.0744601266E-01   -2.8516232935E+01  <-- BEEF
     413   1.07627  -0.03501   2.94537   -4.5583472553E+00    8.1180773015E-01   -2.9348522756E+01  <-- BEEF
     414   0.99933   2.18412  -2.15170   -4.7928291540E+00    6.5215909200E-01   -2.9583004655E+01  <-- BEEF
     415   1.14218  -1.09934   5.19531   -4.5358991263E+00    9.6546731401E-01   -2.9326074627E+01  <-- BEEF
     416   0.84081  -0.43805   2.50191   -3.4691658787E+00    8.2304958007E-01   -2.8259341380E+01  <-- BEEF
     417   0.95707   0.24164   1.21277   -4.0832707373E+00    8.8912715010E-01   -2.8873446238E+01  <-- BEEF
     418   1.03459   0.75461   1.00274   -4.5772468793E+00    7.6467807209E-01   -2.9367422380E+01  <-- BEEF
     419   0.93073   1.29555  -0.87916   -4.2618712238E+00    7.5621671434E-01   -2.9052046725E+01  <-- BEEF
     420   1.02494  -0.18782   2.43106   -4.2549009663E+00    9.3629074733E-01   -2.9045076467E+01  <-- BEEF
     421   0.98694   0.57747   1.36071   -4.3549128469E+00    7.2137696972E-01   -2.9145088348E+01  <-- BEEF
     422   1.11468   1.10194   0.98593   -5.0251967022E+00    6.8791294852E-01   -2.9815372203E+01  <-- BEEF
     423   1.12877  -0.08422   3.57035   -4.7871653372E+00    7.6955555904E-01   -2.9577340838E+01  <-- BEEF
     424   0.82564   1.82067  -2.73586   -3.9372550451E+00    7.4906231091E-01   -2.8727430546E+01  <-- BEEF
     425   1.17858   0.57876   2.12616   -5.1338958746E+00    7.9507264023E-01   -2.9924071375E+01  <-- BEEF
     426   1.12589  -0.87762   5.09233   -4.5638394497E+00    8.5277297470E-01   -2.9354014951E+01  <-- BEEF
     427   1.12462   0.58304   2.02426   -4.9268000556E+00    7.4785143239E-01   -2.9716975557E+01  <-- BEEF
     428   0.98031   0.10200   2.46825   -4.2204262317E+00    7.2376707456E-01   -2.9010601733E+01  <-- BEEF
     429   0.90251   1.16039  -0.88650   -4.0972324734E+00    7.9266680708E-01   -2.8887407974E+01  <-- BEEF
     430   1.12748   0.17288   2.49855   -4.7994556092E+00    8.6248144374E-01   -2.9589631110E+01  <-- BEEF
     431   1.02944   0.34895   1.57425   -4.4309266706E+00    8.4649634691E-01   -2.9221102171E+01  <-- BEEF
     432   0.97733   1.19147  -0.08244   -4.4601043894E+00    6.9858591166E-01   -2.9250279890E+01  <-- BEEF
     433   0.88543   0.01706   1.38298   -3.7343697678E+00    8.8047770036E-01   -2.8524545269E+01  <-- BEEF
     434   1.11988   0.15485   3.35319   -4.8399616485E+00    6.8126014028E-01   -2.9630137149E+01  <-- BEEF
     435   0.95690  -0.35265   2.65786   -3.9506954964E+00    8.8925962702E-01   -2.8740870997E+01  <-- BEEF
     436   0.96944  -0.22484   2.21133   -4.0133776324E+00    9.3344431528E-01   -2.8803553133E+01  <-- BEEF
     437   0.99912  -0.05598   2.41601   -4.2159345151E+00    8.3957820365E-01   -2.9006110016E+01  <-- BEEF
     438   1.06067  -0.47990   4.06243   -4.4049495458E+00    7.8533372244E-01   -2.9195125047E+01  <-- BEEF
     439   1.17422  -0.11974   3.60602   -4.9430728956E+00    8.3643430173E-01   -2.9733248397E+01  <-- BEEF
     440   0.86543   0.22604   1.29981   -3.7447735140E+00    7.6558276794E-01   -2.8534949015E+01  <-- BEEF
     441   1.05843   0.56827   1.76612   -4.6519762308E+00    7.2845109113E-01   -2.9442151732E+01  <-- BEEF
     442   1.00491   1.11746   0.05893   -4.5423826725E+00    7.4086486513E-01   -2.9332558173E+01  <-- BEEF
     443   0.91390  -0.43204   2.76936   -3.7665055284E+00    8.5349940946E-01   -2.8556681029E+01  <-- BEEF
     444   1.18661  -0.05085   3.97041   -5.0519413812E+00    7.3895146576E-01   -2.9842116882E+01  <-- BEEF
     445   1.02617  -0.05545   2.02512   -4.2813320136E+00    9.5555394568E-01   -2.9071507515E+01  <-- BEEF
     446   0.97877   0.54544   1.04284   -4.2820903533E+00    7.9519270886E-01   -2.9072265854E+01  <-- BEEF
     447   1.02916   0.39527   1.85102   -4.4750919036E+00    7.6359200154E-01   -2.9265267405E+01  <-- BEEF
     448   1.00848   0.25317   2.28535   -4.3748712354E+00    7.1930609224E-01   -2.9165046736E+01  <-- BEEF
     449   0.94516   0.89504   0.17492   -4.2336105912E+00    7.5727027171E-01   -2.9023786092E+01  <-- BEEF
     450   1.15192  -0.37692   4.12011   -4.7934344639E+00    8.3264186748E-01   -2.9583609965E+01  <-- BEEF
     451   0.98455   1.04493  -0.13939   -4.4172784678E+00    7.9518671888E-01   -2.9207453969E+01  <-- BEEF
     452   0.93741   0.92790   0.01786   -4.2052898173E+00    7.6404036411E-01   -2.8995465318E+01  <-- BEEF
     453   1.07287   0.09639   2.23384   -4.5397978106E+00    8.9062603461E-01   -2.9329973312E+01  <-- BEEF
     454   1.00451   1.12059   0.01296   -4.5381347151E+00    7.4849799685E-01   -2.9328310216E+01  <-- BEEF
     455   1.04376  -1.07112   4.56963   -4.1276980959E+00    9.6200924130E-01   -2.8917873597E+01  <-- BEEF
     456   0.89076   0.34140   0.23320   -3.7937833751E+00    9.6341421204E-01   -2.8583958876E+01  <-- BEEF
     457   1.00471   1.19433  -0.15278   -4.5564747188E+00    7.4582601034E-01   -2.9346650220E+01  <-- BEEF
     458   1.08777   1.38405   0.24732   -4.9834548923E+00    6.6569079409E-01   -2.9773630393E+01  <-- BEEF
     459   0.98955   1.57542  -0.81466   -4.6086411072E+00    6.7076474975E-01   -2.9398816608E+01  <-- BEEF
     460   1.04257  -0.88408   4.08487   -4.1621353872E+00    9.6677733834E-01   -2.8952310888E+01  <-- BEEF
     461   0.95033   0.83701   0.51499   -4.2577051907E+00    7.2151437695E-01   -2.9047880692E+01  <-- BEEF
     462   0.92219   0.28428   1.33126   -3.9834648721E+00    7.9895099546E-01   -2.8773640373E+01  <-- BEEF
     463   1.04641  -0.09917   2.92072   -4.4173074321E+00    8.1326793002E-01   -2.9207482933E+01  <-- BEEF
     464   0.99239   0.23569   1.87479   -4.2708246614E+00    7.9549440611E-01   -2.9061000162E+01  <-- BEEF
     465   1.10788  -0.04469   2.82956   -4.6607846677E+00    8.8038003462E-01   -2.9450960169E+01  <-- BEEF
     466   1.08868   0.82183   0.94928   -4.8023993967E+00    8.0811866078E-01   -2.9592574898E+01  <-- BEEF
     467   0.92844   1.56589  -1.41021   -4.3247450764E+00    7.2646888496E-01   -2.9114920577E+01  <-- BEEF
     468   0.96974  -0.08933   2.65057   -4.1134626610E+00    7.7079819766E-01   -2.8903638162E+01  <-- BEEF
     469   1.05369   1.15115   0.36152   -4.7649804204E+00    7.1956886551E-01   -2.9555155921E+01  <-- BEEF
     470   0.88313   0.10124   0.88237   -3.7180226103E+00    9.4030816902E-01   -2.8508198111E+01  <-- BEEF
     471   0.86544   0.73371  -0.28699   -3.8259484959E+00    8.3998602337E-01   -2.8616123997E+01  <-- BEEF
     472   0.98380   1.54349  -0.89458   -4.5661506529E+00    6.9708259039E-01   -2.9356326154E+01  <-- BEEF
     473   0.99666   0.79414   0.63429   -4.4211462376E+00    7.7555474405E-01   -2.9211321738E+01  <-- BEEF
     474   0.97112   0.56323   0.59474   -4.2214045034E+00    8.7153913822E-01   -2.9011580004E+01  <-- BEEF
     475   0.75274   1.47095  -2.02240   -3.5773235346E+00    6.8827734205E-01   -2.8367499035E+01  <-- BEEF
     476   1.14439  -0.52268   4.46687   -4.7324965396E+00    8.2505767223E-01   -2.9522672041E+01  <-- BEEF
     477   0.95770   0.18834   1.29443   -4.0694608878E+00    9.0009721816E-01   -2.8859636389E+01  <-- BEEF
     478   0.94728  -0.12027   2.47328   -4.0007512965E+00    7.9660350474E-01   -2.8790926797E+01  <-- BEEF
     479   1.02945   0.23469   2.20415   -4.4371384624E+00    7.7194781065E-01   -2.9227313963E+01  <-- BEEF
     480   1.01964  -0.36453   3.12855   -4.2200615658E+00    8.7309158686E-01   -2.9010237067E+01  <-- BEEF
     481   0.92033  -0.10302   2.14052   -3.8787063593E+00    8.2495775113E-01   -2.8668881860E+01  <-- BEEF
     482   1.11944   0.45529   1.83444   -4.8343878546E+00    8.4759556992E-01   -2.9624563356E+01  <-- BEEF
     483   1.03070   0.27141   2.06034   -4.4450439197E+00    7.8502729887E-01   -2.9235219421E+01  <-- BEEF
     484   0.98794   1.60956  -1.00225   -4.6009159800E+00    6.9092794029E-01   -2.9391091481E+01  <-- BEEF
     485   1.02210  -0.42995   3.07931   -4.1959831744E+00    9.2032118765E-01   -2.8986158675E+01  <-- BEEF
     486   1.01526  -0.84307   3.97556   -4.0692091156E+00    9.3506546299E-01   -2.8859384616E+01  <-- BEEF
     487   1.00239   0.49454   1.26715   -4.3672834982E+00    8.0307358412E-01   -2.9157458999E+01  <-- BEEF
     488   1.13525  -0.93616   5.19829   -4.5822703745E+00    8.7207991690E-01   -2.9372445875E+01  <-- BEEF
     489   0.99591   0.06645   2.60864   -4.2751685147E+00    7.3162170883E-01   -2.9065344016E+01  <-- BEEF
     490   1.03413  -0.62995   3.25380   -4.1681928219E+00    1.0013826654E+00   -2.8958368323E+01  <-- BEEF
     491   1.01275   1.11364   0.24592   -4.5864656845E+00    7.1287422212E-01   -2.9376641185E+01  <-- BEEF
     492   1.01246  -0.97923   4.32329   -4.0301127134E+00    9.2816611404E-01   -2.8820288214E+01  <-- BEEF
     493   1.06181   0.52805   1.03282   -4.5811120762E+00    9.0881312978E-01   -2.9371287577E+01  <-- BEEF
     494   0.86712   1.78755  -1.91762   -4.1496461155E+00    6.4393348240E-01   -2.8939821616E+01  <-- BEEF
     495   1.05911  -0.16097   2.88640   -4.4340829944E+00    8.6811296435E-01   -2.9224258495E+01  <-- BEEF
     496   0.93421   0.14791   1.16627   -3.9532209898E+00    9.1912813322E-01   -2.8743396491E+01  <-- BEEF
     497   1.02194   0.47368   1.70362   -4.4696023037E+00    7.4545235013E-01   -2.9259777805E+01  <-- BEEF
     498   1.02548   0.63780   0.95593   -4.4879195546E+00    8.2362427526E-01   -2.9278095055E+01  <-- BEEF
     499   1.05716  -0.13403   2.67105   -4.4194387989E+00    8.9745632915E-01   -2.9209614300E+01  <-- BEEF
     500   1.03072   0.51539   1.68695   -4.5189780235E+00    7.3830317898E-01   -2.9309153524E+01  <-- BEEF
     501   1.03402   0.71089   1.04781   -4.5599345206E+00    7.7698130316E-01   -2.9350110021E+01  <-- BEEF
     502   1.18824  -1.07150   5.68398   -4.7625465351E+00    9.0439435353E-01   -2.9552722036E+01  <-- BEEF
     503   0.88748   2.12226  -2.37371   -4.3314203148E+00    5.9303449098E-01   -2.9121595816E+01  <-- BEEF
     504   0.96592  -0.37284   2.82951   -3.9906067737E+00    8.7443258008E-01   -2.8780782275E+01  <-- BEEF
     505   0.96721   0.60503   0.78984   -4.2428102671E+00    8.0380112103E-01   -2.9032985768E+01  <-- BEEF
     506   1.06394  -0.69579   3.50436   -4.2720999259E+00    1.0190517283E+00   -2.9062275427E+01  <-- BEEF
     507   0.84045   1.00322  -0.67256   -3.8173965389E+00    7.5179640895E-01   -2.8607572040E+01  <-- BEEF
     508   1.04798  -0.32281   3.91513   -4.4138528997E+00    7.1982846236E-01   -2.9204028401E+01  <-- BEEF
     509   1.08520  -1.15104   4.75727   -4.2628348672E+00    1.0146361702E+00   -2.9053010368E+01  <-- BEEF
     510   1.07297  -2.16663   6.97228   -3.9692522789E+00    1.0540653513E+00   -2.8759427780E+01  <-- BEEF
     511   0.91938  -0.09557   2.15385   -3.8796496612E+00    8.1711415996E-01   -2.8669825162E+01  <-- BEEF
     512   1.06099   0.37476   1.74619   -4.5745617009E+00    8.3569103437E-01   -2.9364737202E+01  <-- BEEF
     513   0.91022   1.21050  -0.23172   -4.2065085692E+00    6.3754718726E-01   -2.8996684070E+01  <-- BEEF
     514   1.06774  -0.66082   4.00702   -4.3465769041E+00    8.9915262023E-01   -2.9136752405E+01  <-- BEEF
     515   0.98696   1.24635  -0.16757   -4.5122770665E+00    7.0020374286E-01   -2.9302452567E+01  <-- BEEF
     516   1.11596  -1.65241   6.31897   -4.2961427106E+00    9.8029130361E-01   -2.9086318211E+01  <-- BEEF
     517   1.01502  -0.65869   3.49984   -4.1067922841E+00    9.4046478295E-01   -2.8896967785E+01  <-- BEEF
     518   1.10454  -0.75529   4.59357   -4.4938990513E+00    8.6901091166E-01   -2.9284074552E+01  <-- BEEF
     519   0.81983   0.76272  -0.29323   -3.6692130147E+00    7.7003061432E-01   -2.8459388516E+01  <-- BEEF
     520   1.07249   0.36924   1.99521   -4.6370501320E+00    7.9996069458E-01   -2.9427225633E+01  <-- BEEF
     521   0.97850   0.48797   0.77174   -4.2314958257E+00    8.8197288987E-01   -2.9021671327E+01  <-- BEEF
     522   1.03723  -1.72379   6.30362   -3.9717646921E+00    9.2316743039E-01   -2.8761940193E+01  <-- BEEF
     523   0.95867  -0.83638   3.20234   -3.7932714006E+00    1.0256379934E+00   -2.8583446901E+01  <-- BEEF
     524   0.84423   1.65252  -1.64070   -4.0302769128E+00    6.2664861602E-01   -2.8820452414E+01  <-- BEEF
     525   1.03492  -0.86221   3.95738   -4.1319795958E+00    9.7306606373E-01   -2.8922155097E+01  <-- BEEF
     526   1.17024  -1.24828   5.78659   -4.6272836400E+00    9.5163469477E-01   -2.9417459141E+01  <-- BEEF
     527   1.03961  -0.43160   3.65308   -4.3115106389E+00    8.2117243783E-01   -2.9101686140E+01  <-- BEEF
     528   1.06926  -1.62017   5.99635   -4.1084492670E+00    9.7437660825E-01   -2.8898624768E+01  <-- BEEF
     529   1.05225  -1.63688   5.81120   -4.0215113827E+00    1.0012440616E+00   -2.8811686884E+01  <-- BEEF
     530   0.84716   0.74113  -0.29120   -3.7611319785E+00    8.1448198407E-01   -2.8551307479E+01  <-- BEEF
     531   1.02751  -0.14743   2.63104   -4.3001381991E+00    8.7624455329E-01   -2.9090313700E+01  <-- BEEF
     532   1.03617   0.14059   2.45560   -4.4431953031E+00    7.7550684330E-01   -2.9233370804E+01  <-- BEEF
     533   1.02350  -0.03725   2.65262   -4.3356775446E+00    8.0986734274E-01   -2.9125853045E+01  <-- BEEF
     534   1.02214  -0.52955   3.19604   -4.1627568970E+00    9.4701770866E-01   -2.8952932398E+01  <-- BEEF
     535   1.16163   0.10451   3.13726   -4.9530841754E+00    8.0453633864E-01   -2.9743259676E+01  <-- BEEF
     536   1.04208  -0.22365   2.61068   -4.3187454197E+00    9.3787719425E-01   -2.9108920921E+01  <-- BEEF
     537   0.95597   0.00228   2.02117   -4.0463601983E+00    8.3993267631E-01   -2.8836535699E+01  <-- BEEF
     538   1.11956  -0.88449   4.29264   -4.4657335721E+00    1.0180073621E+00   -2.9255909073E+01  <-- BEEF
     539   0.98585   0.51458   1.14661   -4.3040254754E+00    7.9785872834E-01   -2.9094200976E+01  <-- BEEF
     540   0.99077   0.45651   1.00106   -4.2836618492E+00    8.6474957727E-01   -2.9073837350E+01  <-- BEEF
     541   0.99305   0.17173   1.76856   -4.2355843154E+00    8.5181511361E-01   -2.9025759816E+01  <-- BEEF
     542   1.00738  -0.34569   2.78937   -4.1525150167E+00    9.2011611368E-01   -2.8942690518E+01  <-- BEEF
     543   1.02539   1.31055   0.00691   -4.6985167021E+00    6.7754809642E-01   -2.9488692203E+01  <-- BEEF
     544   1.05130  -0.78302   4.36481   -4.2639818821E+00    8.6606642079E-01   -2.9054157383E+01  <-- BEEF
     545   1.06226   0.12391   2.34188   -4.5222745506E+00    8.4042696677E-01   -2.9312450051E+01  <-- BEEF
     546   1.05734  -0.23983   3.04662   -4.4072071605E+00    8.7266239234E-01   -2.9197382661E+01  <-- BEEF
     547   1.00862  -0.06636   2.36415   -4.2419001427E+00    8.6765786844E-01   -2.9032075644E+01  <-- BEEF
     548   0.94155   0.76910   0.69791   -4.2116835270E+00    7.0694097119E-01   -2.9001859028E+01  <-- BEEF
     549   1.07184  -1.08977   4.91665   -4.2545913003E+00    9.3274594116E-01   -2.9044766801E+01  <-- BEEF
     550   1.10712  -1.54492   5.75576   -4.2602357354E+00    1.0332915086E+00   -2.9050411236E+01  <-- BEEF
     551   0.94188   0.19375   0.91522   -3.9792990089E+00    9.5815849492E-01   -2.8769474510E+01  <-- BEEF
     552   1.01015  -1.24757   4.72984   -3.9399101585E+00    9.7758598802E-01   -2.8730085659E+01  <-- BEEF
     553   1.20289  -0.59940   4.77199   -4.9427565883E+00    8.7219032556E-01   -2.9732932089E+01  <-- BEEF
     554   1.15360  -0.70349   4.96439   -4.7316447349E+00    8.2426579770E-01   -2.9521820236E+01  <-- BEEF
     555   1.06642  -0.69292   4.02193   -4.3289283570E+00    9.1093360701E-01   -2.9119103858E+01  <-- BEEF
     556   0.98549  -0.34174   2.18279   -4.0188249454E+00    1.0196254793E+00   -2.8809000446E+01  <-- BEEF
     557   0.94264   1.16139   0.16034   -4.3401180552E+00    6.1981502683E-01   -2.9130293556E+01  <-- BEEF
[...]
    4825   1.12191  -0.07170   3.06422   -4.7219270902E+00    8.6190409776E-01   -2.9512102591E+01  <-- BEEF
    4826   0.95669   0.91576   0.25950   -4.2929964074E+00    7.4288822237E-01   -2.9083171908E+01  <-- BEEF
    4827   1.01305   1.01129   0.86915   -4.5984176220E+00    6.3396186096E-01   -2.9388593123E+01  <-- BEEF
    4828   0.92614  -0.46850   2.19159   -3.7440375342E+00    1.0098893117E+00   -2.8534213035E+01  <-- BEEF
    4829   1.08994   1.47358  -0.17003   -4.9934743762E+00    7.1063316109E-01   -2.9783649877E+01  <-- BEEF
    4830   0.95116   0.73662   0.57666   -4.2221232938E+00    7.6126321156E-01   -2.9012298795E+01  <-- BEEF
    4831   1.04193   1.00564   0.67014   -4.6850762873E+00    7.1471647406E-01   -2.9475251788E+01  <-- BEEF
    4832   0.91355   0.47214   0.64250   -3.9723919735E+00    8.3734011403E-01   -2.8762567474E+01  <-- BEEF
    4833   1.01953  -0.05774   2.42632   -4.2916882332E+00    8.6350689485E-01   -2.9081863734E+01  <-- BEEF
    4834   0.99728   0.40852   1.63527   -4.3434761681E+00    7.6311410135E-01   -2.9133651669E+01  <-- BEEF
    4835   1.03165  -0.51939   2.84905   -4.1713593285E+00    1.0270626538E+00   -2.8961534829E+01  <-- BEEF
    4836   0.88254   1.91033  -2.08446   -4.2458366892E+00    6.3498736471E-01   -2.9036012190E+01  <-- BEEF
    4837   0.95672   0.27672   1.20825   -4.0969926298E+00    8.7154873356E-01   -2.8887168131E+01  <-- BEEF
    4838   1.01105   0.57691   0.89709   -4.4024361557E+00    8.4970345577E-01   -2.9192611657E+01  <-- BEEF
    4839   1.00348  -0.46455   2.93537   -4.0988847204E+00    9.4569198890E-01   -2.8889060221E+01  <-- BEEF
    4840   0.75550   2.03118  -3.12264   -3.7353880614E+00    6.3581889991E-01   -2.8525563562E+01  <-- BEEF
    4841   1.03869   0.02956   2.36849   -4.3958685747E+00    8.5436774867E-01   -2.9186044076E+01  <-- BEEF
    4842   1.08635  -0.01926   2.94110   -4.6022543332E+00    8.1703960026E-01   -2.9392429834E+01  <-- BEEF
    4843   0.94426  -0.09629   2.59323   -4.0108583923E+00    7.5507502335E-01   -2.8801033893E+01  <-- BEEF
    4844   0.80987   0.35821   0.22258   -3.5005932850E+00    8.5711418890E-01   -2.8290768786E+01  <-- BEEF
    4845   1.07921  -0.18991   2.58686   -4.4689570210E+00    9.7135067347E-01   -2.9259132522E+01  <-- BEEF
    4846   1.03253   1.00192   1.04671   -4.6823497098E+00    6.2521002131E-01   -2.9472525211E+01  <-- BEEF
    4847   1.04951  -0.26909   3.50076   -4.4060316252E+00    7.8183156840E-01   -2.9196207126E+01  <-- BEEF
    4848   0.80983   1.31351  -1.71165   -3.7473774913E+00    7.7413535671E-01   -2.8537552992E+01  <-- BEEF
    4849   1.00228  -0.39670   2.94610   -4.1252560727E+00    9.0693105598E-01   -2.8915431574E+01  <-- BEEF
    4850   1.05419   0.21180   2.49211   -4.5445164438E+00    7.5326900169E-01   -2.9334691945E+01  <-- BEEF
    4851   0.95880  -0.47186   2.93350   -3.9300149353E+00    8.9469933754E-01   -2.8720190436E+01  <-- BEEF
    4852   1.08256  -0.66623   4.35164   -4.4299791199E+00    8.4719642819E-01   -2.9220154621E+01  <-- BEEF
    4853   1.02571   0.59896   1.43105   -4.5142631104E+00    7.4324629577E-01   -2.9304438611E+01  <-- BEEF
    4854   1.12526   0.28431   2.51355   -4.8415762363E+00    7.9905942215E-01   -2.9631751737E+01  <-- BEEF
    4855   0.97224   0.09260   2.07403   -4.1510631775E+00    8.0220872053E-01   -2.8941238678E+01  <-- BEEF
    4856   1.02319   0.17642   1.98118   -4.3683508485E+00    8.4154670636E-01   -2.9158526349E+01  <-- BEEF
    4857   1.09033  -0.67284   4.62564   -4.4804178154E+00    8.0213322093E-01   -2.9270593316E+01  <-- BEEF
    4858   0.96104   0.29786   1.17231   -4.1191008289E+00    8.7360145555E-01   -2.8909276330E+01  <-- BEEF
    4859   1.09667   0.31356   2.07187   -4.7089640706E+00    8.4228620863E-01   -2.9499139572E+01  <-- BEEF
    4860   0.96970   0.78692   0.55110   -4.3106445292E+00    7.6362192984E-01   -2.9100820030E+01  <-- BEEF
    4861   1.08529   0.29991   1.80547   -4.6369399422E+00    8.9174395912E-01   -2.9427115443E+01  <-- BEEF
    4862   0.97356   0.49504   1.37590   -4.2704299868E+00    7.4415833192E-01   -2.9060605488E+01  <-- BEEF
    4863   1.06150  -0.97811   4.62265   -4.2390503640E+00    9.2467606198E-01   -2.9029225865E+01  <-- BEEF
    4864   0.95804   0.81101   0.65193   -4.2870777736E+00    7.1542101424E-01   -2.9077253274E+01  <-- BEEF
    4865   0.86792   0.75811  -0.09790   -3.8627983841E+00    7.9037361139E-01   -2.8652973885E+01  <-- BEEF
    4866   1.01740   0.00008   2.12149   -4.2819112541E+00    8.9565102297E-01   -2.9072086755E+01  <-- BEEF
    4867   0.98733   0.69399   1.03871   -4.3787549896E+00    7.2998626712E-01   -2.9168930490E+01  <-- BEEF
    4868   1.00281   0.74951   0.52992   -4.4149421879E+00    8.2830041345E-01   -2.9205117689E+01  <-- BEEF
    4869   0.96555  -0.46148   3.18490   -3.9821094112E+00    8.4438804809E-01   -2.8772284912E+01  <-- BEEF
    4870   0.97893   0.99485   0.34473   -4.4178002320E+00    7.1146554458E-01   -2.9207975733E+01  <-- BEEF
    4871   1.12045   0.14072   2.61147   -4.7693723404E+00    8.4645554744E-01   -2.9559547841E+01  <-- BEEF
    4872   1.05407   0.05466   2.33933   -4.4612602419E+00    8.6658664202E-01   -2.9251435743E+01  <-- BEEF
    4873   1.08477  -0.28051   2.87380   -4.4754275862E+00    9.6415093066E-01   -2.9265603087E+01  <-- BEEF
    4874   0.99344  -0.46742   2.87043   -4.0546053798E+00    9.4853538675E-01   -2.8844780881E+01  <-- BEEF
    4875   1.06896  -1.14539   5.04619   -4.2310497063E+00    9.3042627068E-01   -2.9021225207E+01  <-- BEEF
    4876   1.07995  -1.32228   5.35627   -4.2217353889E+00    9.6954091255E-01   -2.9011910890E+01  <-- BEEF
    4877   0.95254  -0.69922   3.39552   -3.8481946455E+00    9.0634684416E-01   -2.8638370146E+01  <-- BEEF
    4878   0.86946   1.34421  -1.23708   -4.0242773002E+00    7.3132715608E-01   -2.8814452801E+01  <-- BEEF
    4879   1.17350  -1.88014   7.10222   -4.4792739102E+00    1.0028191298E+00   -2.9269449411E+01  <-- BEEF
    4880   0.97929   0.29879   1.26634   -4.1955344604E+00    8.7572675014E-01   -2.8985709961E+01  <-- BEEF
    4881   0.90114   1.53488  -0.95955   -4.2503607730E+00    6.1323361350E-01   -2.9040536274E+01  <-- BEEF
    4882   0.97515  -0.21065   2.53656   -4.0699128768E+00    8.6424251521E-01   -2.8860088378E+01  <-- BEEF
    4883   0.84471   0.25674   1.01642   -3.6561272021E+00    7.8422343673E-01   -2.8446302703E+01  <-- BEEF
    4884   1.04275  -1.18251   4.61736   -4.0792179433E+00    1.0081111768E+00   -2.8869393444E+01  <-- BEEF
    4885   1.02115  -0.01568   2.27917   -4.3030057406E+00    8.7498945000E-01   -2.9093181241E+01  <-- BEEF
    4886   1.00953  -0.41378   3.27321   -4.1738798001E+00    8.5534884586E-01   -2.8964055301E+01  <-- BEEF
    4887   0.97488   1.44718  -0.69551   -4.5085649106E+00    6.9356320836E-01   -2.9298740411E+01  <-- BEEF
    4888   1.25579  -1.28183   6.74153   -5.0149830531E+00    8.7216500450E-01   -2.9805158554E+01  <-- BEEF
    4889   1.04120  -0.10528   3.22760   -4.4228316253E+00    7.4495053523E-01   -2.9213007126E+01  <-- BEEF
    4890   0.88189   0.80093  -0.50099   -3.8972736704E+00    8.7096797762E-01   -2.8687449171E+01  <-- BEEF
    4891   1.01835  -0.41244   2.95474   -4.1786111754E+00    9.3305228649E-01   -2.8968786676E+01  <-- BEEF
    4892   0.94136   0.13091   1.79086   -4.0281623656E+00    8.0433427038E-01   -2.8818337867E+01  <-- BEEF
    4893   1.01827   0.54412   1.45405   -4.4646365879E+00    7.5747670374E-01   -2.9254812089E+01  <-- BEEF
    4894   1.09427  -0.60239   3.79977   -4.4519857338E+00    9.4568805702E-01   -2.9242161235E+01  <-- BEEF
    4895   0.89603   0.38706   1.24445   -3.9239753813E+00    7.3201146117E-01   -2.8714150882E+01  <-- BEEF
    4896   1.01326   0.39829   1.53732   -4.3893834884E+00    8.0888576490E-01   -2.9179558989E+01  <-- BEEF
    4897   1.04610   0.63008   1.20756   -4.5834754514E+00    7.9974009713E-01   -2.9373650952E+01  <-- BEEF
    4898   0.89072  -0.31000   2.35311   -3.6970321843E+00    8.5014458274E-01   -2.8487207685E+01  <-- BEEF
    4899   0.92172   0.24254   1.56873   -3.9846299328E+00    7.6957571952E-01   -2.8774805434E+01  <-- BEEF
    4900   1.06077   0.23933   2.64039   -4.5942940069E+00    7.1576293896E-01   -2.9384469508E+01  <-- BEEF
    4901   1.10584   0.01569   2.60599   -4.6597777949E+00    8.9409800632E-01   -2.9449953296E+01  <-- BEEF
    4902   0.91814   0.61408   0.41955   -4.0318191344E+00    8.1702080554E-01   -2.8821994635E+01  <-- BEEF
    4903   1.06799  -1.01965   4.48831   -4.2327995764E+00    9.8260384715E-01   -2.9022975077E+01  <-- BEEF
    4904   0.84489   1.74239  -1.76177   -4.0614253575E+00    6.0675590654E-01   -2.8851600858E+01  <-- BEEF
    4905   1.16526   0.22840   2.82180   -4.9927867687E+00    8.1196694023E-01   -2.9782962270E+01  <-- BEEF
    4906   1.01032  -1.12135   4.52958   -3.9781367335E+00    9.5512031246E-01   -2.8768312234E+01  <-- BEEF
    4907   1.01431  -0.37927   3.32203   -4.2111647027E+00    8.3310878626E-01   -2.9001340204E+01  <-- BEEF
    4908   1.11982  -0.09359   3.42778   -4.7371259948E+00    7.9356159818E-01   -2.9527301496E+01  <-- BEEF
    4909   0.95307   1.72506  -1.68901   -4.4610097123E+00    7.3383889898E-01   -2.9251185213E+01  <-- BEEF
    4910   1.05944  -0.00690   2.36201   -4.4561023236E+00    9.0017201793E-01   -2.9246277824E+01  <-- BEEF
    4911   0.87576   0.45939   0.28452   -3.7947092271E+00    8.7313533911E-01   -2.8584884728E+01  <-- BEEF
    4912   0.97089  -0.19610   2.62061   -4.0680542465E+00    8.3365724418E-01   -2.8858229747E+01  <-- BEEF
    4913   1.01560  -0.66311   3.40348   -4.0983841374E+00    9.6389160589E-01   -2.8888559638E+01  <-- BEEF
    4914   0.97401   1.73696  -1.18258   -4.5891791033E+00    6.4620845190E-01   -2.9379354604E+01  <-- BEEF
    4915   0.99779   0.89021   0.59542   -4.4640800784E+00    7.3560826760E-01   -2.9254255579E+01  <-- BEEF
    4916   0.98977   0.05504   2.07168   -4.1992819086E+00    8.4373647897E-01   -2.8989457409E+01  <-- BEEF
    4917   1.03987  -0.33099   3.05982   -4.3035749066E+00    8.9532787092E-01   -2.9093750408E+01  <-- BEEF
    4918   1.00964  -0.04271   2.28694   -4.2491659197E+00    8.7308127443E-01   -2.9039341421E+01  <-- BEEF
    4919   1.03267  -0.27233   3.20591   -4.3157896363E+00    8.2520280633E-01   -2.9105965137E+01  <-- BEEF
    4920   1.25425  -1.03400   5.67593   -5.0228030010E+00    9.6824994746E-01   -2.9812978502E+01  <-- BEEF
    4921   0.96182   1.52460  -0.55867   -4.5065278082E+00    6.0849555827E-01   -2.9296703309E+01  <-- BEEF
    4922   1.05961  -1.28418   5.37840   -4.1651423106E+00    9.2008652078E-01   -2.8955317812E+01  <-- BEEF
    4923   0.92560   1.43220  -1.04735   -4.2879119277E+00    7.1502425479E-01   -2.9078087429E+01  <-- BEEF
    4924   1.12596  -0.26011   3.43097   -4.6868954695E+00    8.8638433386E-01   -2.9477070970E+01  <-- BEEF
    4925   1.02704   0.29648   2.17262   -4.4525696333E+00    7.4377621924E-01   -2.9242745134E+01  <-- BEEF
    4926   0.94150   0.60555   0.46567   -4.1187339243E+00    8.4048594860E-01   -2.8908909425E+01  <-- BEEF
    4927   1.10995  -1.69945   6.67529   -4.2851216855E+00    9.2161750719E-01   -2.9075297186E+01  <-- BEEF
    4928   1.08648  -0.66862   3.86871   -4.4001828561E+00    9.5563724236E-01   -2.9190358357E+01  <-- BEEF
    4929   0.90063   0.29147   1.16027   -3.8914382544E+00    8.0486105323E-01   -2.8681613755E+01  <-- BEEF
    4930   1.11049  -0.08798   2.89627   -4.6573998160E+00    8.9180166269E-01   -2.9447575317E+01  <-- BEEF
    4931   1.02833   0.53013   1.42011   -4.4927275221E+00    7.8431850926E-01   -2.9282903023E+01  <-- BEEF
    4932   1.16730   0.53894   2.36570   -5.0960725727E+00    7.5092510441E-01   -2.9886248074E+01  <-- BEEF
    4933   0.97505   1.03652   0.36536   -4.4236161679E+00    6.8080700344E-01   -2.9213791669E+01  <-- BEEF
    4934   1.16257   0.00654   3.05513   -4.9061197791E+00    8.7365613456E-01   -2.9696295280E+01  <-- BEEF
    4935   1.00517   0.17763   1.80813   -4.2866237055E+00    8.5535297477E-01   -2.9076799206E+01  <-- BEEF
    4936   0.86755   2.32651  -3.00455   -4.2909254194E+00    5.9675364843E-01   -2.9081100920E+01  <-- BEEF
    4937   0.99315  -0.11126   2.93375   -4.2159040828E+00    7.5099738484E-01   -2.9006079584E+01  <-- BEEF
    4938   0.95504  -0.25091   2.31508   -3.9578674673E+00    9.0712868639E-01   -2.8748042968E+01  <-- BEEF
    4939   0.99393   0.54773   1.13901   -4.3478672410E+00    7.9234599239E-01   -2.9138042742E+01  <-- BEEF
    4940   1.08867   0.02362   2.86396   -4.6227897005E+00    8.1412461748E-01   -2.9412965201E+01  <-- BEEF
    4941   0.97857  -0.21038   2.64568   -4.0924522499E+00    8.4518693227E-01   -2.8882627751E+01  <-- BEEF
    4942   0.90206   1.27081  -0.88146   -4.1445884625E+00    7.3407179851E-01   -2.8934763963E+01  <-- BEEF
    4943   1.07147   0.21979   2.14333   -4.5808057958E+00    8.4441665076E-01   -2.9370981297E+01  <-- BEEF
    4944   0.93135  -0.01277   1.88423   -3.9362392570E+00    8.4631779862E-01   -2.8726414758E+01  <-- BEEF
    4945   1.08273  -0.26463   3.31258   -4.5141674056E+00    8.6043372096E-01   -2.9304342906E+01  <-- BEEF
    4946   0.68168   2.88957  -4.92732   -3.6778691524E+00    4.8428336989E-01   -2.8468044653E+01  <-- BEEF
    4947   1.03559  -0.01727   2.49972   -4.3755344904E+00    8.4688629588E-01   -2.9165709991E+01  <-- BEEF
    4948   0.89383   1.89059  -2.01262   -4.2853855523E+00    6.4387431697E-01   -2.9075561053E+01  <-- BEEF
    4949   0.88583   0.49390   0.64803   -3.8797565785E+00    7.9070914559E-01   -2.8669932079E+01  <-- BEEF
    4950   1.08804   0.41618   2.02789   -4.7182258140E+00    7.8801464993E-01   -2.9508401315E+01  <-- BEEF
    4951   0.85388   0.66513  -0.26541   -3.7548923099E+00    8.5652356860E-01   -2.8545067811E+01  <-- BEEF
    4952   1.16519  -0.67678   3.92063   -4.6927743948E+00    1.0460191397E+00   -2.9482949896E+01  <-- BEEF
    4953   0.94342  -0.75069   3.45160   -3.7968009796E+00    9.0975742181E-01   -2.8586976480E+01  <-- BEEF
    4954   1.01119   0.96839   0.30782   -4.5223532621E+00    7.7278032694E-01   -2.9312528763E+01  <-- BEEF
    4955   0.91894   0.43479   1.08067   -4.0151647723E+00    7.7038711415E-01   -2.8805340273E+01  <-- BEEF
    4956   0.85807   1.69310  -1.60697   -4.1024089466E+00    6.1564320794E-01   -2.8892584447E+01  <-- BEEF
    4957   1.16461   0.16641   2.88756   -4.9689867004E+00    8.2920734508E-01   -2.9759162201E+01  <-- BEEF
    4958   1.08262  -0.36076   3.95155   -4.5287450524E+00    7.7446867800E-01   -2.9318920553E+01  <-- BEEF
    4959   1.13153  -0.99533   4.83804   -4.5101672004E+00    9.7436798980E-01   -2.9300342701E+01  <-- BEEF
    4960   1.06723  -0.68622   4.38334   -4.3672505475E+00    8.3186839302E-01   -2.9157426048E+01  <-- BEEF
    4961   1.18805  -1.41218   6.09112   -4.6484572867E+00    9.9364907057E-01   -2.9438632788E+01  <-- BEEF
    4962   0.93535   0.59366   0.73756   -4.1151151105E+00    7.8141192918E-01   -2.8905290611E+01  <-- BEEF
    4963   0.91956   0.61455   0.93162   -4.0832017882E+00    7.1000098636E-01   -2.8873377289E+01  <-- BEEF
    4964   1.08218  -0.44449   3.29380   -4.4313249049E+00    9.5653717086E-01   -2.9221500406E+01  <-- BEEF
    4965   0.91513   1.30409  -0.60241   -4.2326567140E+00    6.7389177664E-01   -2.9022832215E+01  <-- BEEF
    4966   1.09326   0.26756   2.15416   -4.6835007236E+00    8.4437841109E-01   -2.9473676224E+01  <-- BEEF
    4967   0.96394  -0.18743   1.42760   -3.9392339194E+00    1.0734734794E+00   -2.8729409420E+01  <-- BEEF
    4968   0.96553  -0.05418   1.78203   -4.0354814836E+00    9.3155076996E-01   -2.8825656984E+01  <-- BEEF
    4969   0.94243   1.13843   0.09627   -4.3235153137E+00    6.4498648747E-01   -2.9113690815E+01  <-- BEEF
    4970   1.14195   0.47389   2.72278   -5.0055739002E+00    6.7751129161E-01   -2.9795749401E+01  <-- BEEF
    4971   1.07721  -0.53286   3.80624   -4.4199707383E+00    8.8738600478E-01   -2.9210146239E+01  <-- BEEF
    4972   1.13022  -1.40395   6.02857   -4.4322403606E+00    9.3124525408E-01   -2.9222415861E+01  <-- BEEF
    4973   1.06089  -1.49164   5.54836   -4.0938309493E+00    9.9267974343E-01   -2.8884006450E+01  <-- BEEF
    4974   0.88524   1.14553  -0.93369   -4.0224877878E+00    7.8901131486E-01   -2.8812663289E+01  <-- BEEF
    4975   0.99873   0.22954   1.82053   -4.2867203175E+00    8.1798641212E-01   -2.9076895818E+01  <-- BEEF
    4976   0.86853   1.11253  -0.80591   -3.9575278390E+00    7.5832863517E-01   -2.8747703340E+01  <-- BEEF
    4977   0.96119   0.32046   1.01641   -4.1156083653E+00    8.9516470106E-01   -2.8905783866E+01  <-- BEEF
    4978   1.14315   0.57280   2.52759   -5.0360302599E+00    6.6932626829E-01   -2.9826205761E+01  <-- BEEF
    4979   0.85137   0.64603   0.17500   -3.7766634421E+00    7.6993479029E-01   -2.8566838943E+01  <-- BEEF
    4980   1.06469   0.61775   1.87668   -4.7068533134E+00    6.8722260202E-01   -2.9497028814E+01  <-- BEEF
    4981   0.98269   0.15787   2.09132   -4.2200294971E+00    7.7776630542E-01   -2.9010204998E+01  <-- BEEF
    4982   0.92462   0.34021   1.24305   -4.0091360786E+00    7.9178552176E-01   -2.8799311579E+01  <-- BEEF
    4983   0.98321   0.47609   1.81299   -4.3370147692E+00    6.7321455146E-01   -2.9127190270E+01  <-- BEEF
    4984   0.98151   0.03727   2.33877   -4.1847858774E+00    7.8608554427E-01   -2.8974961378E+01  <-- BEEF
    4985   0.94985   0.46180   1.36793   -4.1672912776E+00    7.3373698052E-01   -2.8957466778E+01  <-- BEEF
    4986   0.93858   0.65535   0.53007   -4.1355942372E+00    7.9753694691E-01   -2.8925769738E+01  <-- BEEF
    4987   0.95785  -0.06835   2.53347   -4.0681525462E+00    7.7010903125E-01   -2.8858328047E+01  <-- BEEF
    4988   1.06929   0.24339   1.99279   -4.5696121054E+00    8.6145025781E-01   -2.9359787606E+01  <-- BEEF
    4989   0.93426   1.12487  -0.18197   -4.2623483407E+00    7.0087038384E-01   -2.9052523842E+01  <-- BEEF
    4990   1.02651  -0.12010   3.02030   -4.3433266869E+00    7.7839495437E-01   -2.9133502188E+01  <-- BEEF
    4991   0.93214   0.08190   1.32827   -3.9310027457E+00    9.1628455521E-01   -2.8721178247E+01  <-- BEEF
    4992   0.78870   1.56746  -1.83579   -3.7697001870E+00    6.4332599751E-01   -2.8559875688E+01  <-- BEEF
    4993   0.90301   1.58459  -1.39870   -4.2397929506E+00    6.8297229419E-01   -2.9029968451E+01  <-- BEEF
    4994   1.07862  -0.11040   2.57938   -4.5011108783E+00    9.3119385496E-01   -2.9291286379E+01  <-- BEEF
    4995   0.98134   0.65533   0.95852   -4.3323916404E+00    7.5953892199E-01   -2.9122567141E+01  <-- BEEF
    4996   1.00855   0.07325   2.24532   -4.2924100846E+00    8.2072225541E-01   -2.9082585585E+01  <-- BEEF
    4997   0.94151   1.13863  -0.59360   -4.2583755358E+00    7.8997031830E-01   -2.9048551037E+01  <-- BEEF
    4998   0.99487   0.28824   1.86938   -4.3026397493E+00    7.7258879814E-01   -2.9092815250E+01  <-- BEEF
    4999   0.97908  -0.07534   2.60043   -4.1497167099E+00    7.8573970819E-01   -2.8939892211E+01  <-- BEEF
    5000   0.92181   1.24918  -0.72388   -4.2223459379E+00    7.3621272759E-01   -2.9012521439E+01  <-- BEEF
 
 *********************************************************
                    BEEF completed.
 *********************************************************
 
  Mean total energy =       -29.0783425134 Ha
 Standard deviation =         0.3345072568 Ha
 
 *********************************************************
Initialisation time =      0.50 s
Calculation time    =      5.62 s
Finalisation time   =     98.40 s
Total time          =    104.52 s
Peak Memory Use     = 468488 kB
  
Overall parallel efficiency rating: Excellent (99%)                             
  
Data was distributed by:-
k-point (28-way); efficiency rating: Excellent (99%)                            
  
Parallel notes:
1) Calculation only took 6.1 s, so efficiency estimates may be inaccurate.      
