 +-------------------------------------------------+
 |                                                 |
 |      CCC   AA    SSS  TTTTT  EEEEE  PPPP        |
 |     C     A  A  S       T    E      P   P       |
 |     C     AAAA   SS     T    EEE    PPPP        |
 |     C     A  A     S    T    E      P           |
 |      CCC  A  A  SSS     T    EEEEE  P           |
 |                                                 |
 +-------------------------------------------------+
 |                                                 |
 | Welcome to Academic Release CASTEP version 17.21|          
 | Ab Initio Total Energy Program                  |
 |                                                 |
 | Authors:                                        |
 | M. Segall, M. Probert, C. Pickard, P. Hasnip,   |
 | S. Clark, K. Refson, J. R. Yates, M. Payne      |
 |                                                 |
 | Contributors:                                   |
 | P. Lindan, P. Haynes, J. White, V. Milman,      |
 | N. Govind, M. Gibson, P. Tulip, V. Cocula,      |
 | B. Montanari, D. Quigley, M. Glover,            |
 | L. Bernasconi, A. Perlov, M. Plummer,           |
 | E. McNellis, J. Meyer, J. Gale, D. Jochym       |
 | J. Aarons, B. Walker, R. Gillen, D. Jones       |
 | T. Green, I. J. Bush, C. J. Armstrong,          |
 | E. J. Higgins, E. L. Brown, M. S. McFly,        |
 | J. Wilkins, B-C. Shih, P. J. P. Byrne           |
 |                                                 |
 | Copyright (c) 2000 - 2017                       |
 |                                                 |
 |     Distributed under the terms of an           |
 |     Agreement between the United Kingdom        |
 |     Car-Parrinello (UKCP) Consortium,           |
 |     Daresbury Laboratory and Accelrys, Inc.     |
 |                                                 |
 | Please cite                                     |
 |                                                 |
 |     "First principles methods using CASTEP"     |
 |                                                 |
 |         Zeitschrift fuer Kristallographie       |
 |           220(5-6) pp. 567-570 (2005)           |
 |                                                 |
 | S. J. Clark, M. D. Segall, C. J. Pickard,       |
 | P. J. Hasnip, M. J. Probert, K. Refson,         |
 | M. C. Payne                                     |
 |                                                 |
 |       in all publications arising from          |
 |              your use of CASTEP                 |
 |                                                 |
 +-------------------------------------------------+


 Compiled for linux_x86_64_gfortran6.0 on Thu, 11 Jan 2018 13:39:37 +0000
 from code version 056e886bd5a1+ Castep172_branch Mon, 15 May 2017 14:45:35 +0100
 Compiler: GNU Fortran 6.3.0; Optimisation: fast
 MATHLIBS: Intel MKL(11.3.3) (LAPACK version 3.6.0)
 FFT Lib : mkl
 Fundamental constants values: CODATA 2010

 Run started: Fri, 13 Apr 2018 15:38:20 +0100
 +-------------------------------------------------+
 |                                                 |
 |  D D D D    F F F F F  P P P P     T T T T T    |
 |  D       D  F          P       P       T        |
 |  D       D  F F F F    P P P P         T        |
 |  D       D  F          P               T        |
 |  D D D D    F          P               T        |
 |                                                 |
 +-------------------------------------------------+
 |                                                 |
 | Welcome to Castep Linear Response (DFPT)        |
 |                                                 |
 | Copyright (c) 2006 - 2017                       |
 |                                                 |
 | Please cite the following publications in all   |
 | work arising from your use of CASTEP LR.        |
 |                                                 |
 | K. Refson, S. J. Clark and P. R. Tulip          |
 | Variational density functional perturbation     |
 | theory for dielectrics and lattice dynamics     |
 | Phys. Rev. B 73(15), 155114 (2006)              |
 +-------------------------------------------------+

Reading continuation data from model file CuP-aw2v56-a_final_prim-05.check

 Pseudo atomic calculation performed for P 3s2 3p3

 Converged in 26 iterations to a total energy of -214.2208 eV


 Pseudo atomic calculation performed for Cu 3d10 4s1

 Converged in 79 iterations to a total energy of -1676.8614 eV

Initialising basis set for model.
Reinitialising basis set for current geometry.
Continuing from previous run with ground state wavefunction.
Continuing from previous run with ground state density.
 Info: WRITE_BIB modified from T to F
 Info: WRITE_CHECKPOINT modified from ALL to none
 Info: THERMO_T_START modified from     298.0000000000000     K to     50.00000000000000     K
 Info: THERMO_T_STOP modified from     298.0000000000000     K to     1000.000000000000     K
 Info: THERMO_T_SPACING modified from    0.3157750453746870     K to     100.0000000000000     K
 WARNING: phonon thermal ADP and phonon fine frequency data in check file HAS BEEN DISCARDED.
          because Temperature range (THERMO_T_*) changed on continuation.
 Calculation parallelised over 56 processes.
 Data is distributed by k-point(56-way)

 ************************************ Title ************************************
 

 ***************************** General Parameters ******************************
  
 output verbosity                               : normal  (1)
 continuing from                                : CuP-aw2v56-a_final_prim-05.check
 write checkpoint data to                       : CuP-aw2v56-a_final_prim-05.check
 type of calculation                            : Thermodynamics calculation
 stress calculation                             : on
 density difference calculation                 : off
 electron localisation func (ELF) calculation   : off
 Hirshfeld analysis                             : off
 unlimited duration calculation
 timing information                             : on
 memory usage estimate                          : on
 write final potential to formatted file        : off
 write final density to formatted file          : off
 write BibTeX reference list                    : off
 write OTFG pseudopotential files               : on
 write electrostatic potential file             : on
 write bands file                               : on
  
 output         length unit                     : A
 output           mass unit                     : amu
 output           time unit                     : ps
 output         charge unit                     : e
 output           spin unit                     : hbar/2
 output         energy unit                     : eV
 output          force unit                     : eV/A
 output       velocity unit                     : A/ps
 output       pressure unit                     : GPa
 output     inv_length unit                     : 1/A
 output      frequency unit                     : cm-1
 output force constant unit                     : eV/A**2
 output         volume unit                     : A**3
 output   IR intensity unit                     : (D/A)**2/amu
 output         dipole unit                     : D
 output         efield unit                     : eV/A/e
 output        entropy unit                     : J/mol/K
  
 wavefunctions paging                           : none
 random number generator seed                   :  150921227
 data distribution                              : optimal for this architecture
 optimization strategy                          : maximize speed(+++)

 *********************** Exchange-Correlation Parameters ***********************
  
 using functional                               : Perdew Burke Ernzerhof
 relativistic treatment                         : Koelling-Harmon
 DFT+D: Semi-empirical dispersion correction    : off

 ************************* Pseudopotential Parameters **************************
  
 pseudopotential representation                 : reciprocal space
 <beta|phi> representation                      : reciprocal space
 spin-orbit coupling                            : off

 **************************** Basis Set Parameters *****************************
  
 plane wave basis set cut-off                   :   500.0000   eV
 size of standard grid                          :     1.7500
 size of   fine   gmax                          :    20.0476   1/A
 finite basis set correction                    : none

 **************************** Electronic Parameters ****************************
  
 number of  electrons                           :  27.00    
 net charge of system                           :  0.000    
 treating system as non-spin-polarized
 number of bands                                :         20

 ********************* Electronic Minimization Parameters **********************
  
 Method: Treating system as metallic with density mixing treatment of electrons,
         and number of  SD  steps               :          1
         and number of  CG  steps               :          4
  
 total energy / atom convergence tol.           : 0.1000E-08   eV
 eigen-energy convergence tolerance             : 0.1500E-09   eV
 max force / atom convergence tol.              : ignored
 convergence tolerance window                   :          3   cycles
 max. number of SCF cycles                      :        200
 number of fixed-spin iterations                :         10
 smearing scheme                                : Gaussian
 smearing width                                 : 0.2000       eV
 Fermi energy convergence tolerance             : 0.2721E-13   eV
 periodic dipole correction                     : NONE

 ************************** Density Mixing Parameters **************************
  
 density-mixing scheme                          : Pulay
 max. length of mixing history                  :         20
 charge density mixing amplitude                : 0.4000    
 cut-off energy for mixing                      :  500.0       eV

 *********************** Population Analysis Parameters ************************
  
 Population analysis with cutoff                :  3.000       A

 ****************************** Phonon Parameters ******************************
  
 phonon calculation method                      : finite displacement
 finite displacement amplitude                  : 0.5292E-02   A
 fine phonon calculation method                 : supercell
 non-periodic force constant method             : Weighted cumulant sum
 LO/TO splitting term                           : not included
 acoustic phonon sum rule                       : correct D(q) in recip-space
 Born effective charges                         : not calculated
 Raman intensities                              : not calculated
 phonon k-points                                : use reduced set
 phonon DOS                                     : not calculated
 no timed backups

 ************************** Thermodynamics Parameters **************************
 Helmholtz free energy                          : calculated
 Initial temperature                            :  50.00       K
 Final temperature                              :  1000.       K
 Spacing between temperature values             :  100.0       K
 Number of temperature values                   :         11
 band convergence tolerance                     : 0.1500E-09   eV

 *******************************************************************************
  

                           -------------------------------
                                      Unit Cell
                           -------------------------------
        Real Lattice(A)                      Reciprocal Lattice(1/A)
  -1.9455035   2.7479865   1.9458120        0.0000000   1.1432344   1.6145407
   1.9455035  -2.7479865   1.9458120        1.6147967   0.0000000   1.6145407
   1.9455035   2.7479865  -1.9458120        1.6147967   1.1432344   0.0000000

                       Lattice parameters(A)       Cell Angles
                    a =    3.888778          alpha =  119.962083
                    b =    3.888778          beta  =   90.074784
                    c =    3.888778          gamma =  119.951583

                       Current cell volume =   41.610936       A**3
                                   density =    3.798659   AMU/A**3
                                           =    6.307821     g/cm^3

                           -------------------------------
                                     Cell Contents
                           -------------------------------
                         Total number of ions in cell =    3
                      Total number of species in cell =    2
                        Max number of any one species =    2

            xxxxxxxxxxxxxxxxxxxxxxxxxxxxxxxxxxxxxxxxxxxxxxxxxxxxxxxxxxxx
            x  Element    Atom        Fractional coordinates of atoms  x
            x            Number           u          v          w      x
            x----------------------------------------------------------x
            x  P            1         0.756908   0.756908   0.000000   x 
            x  Cu           1         0.507101   0.257038   0.250063   x 
            x  Cu           2         1.006975   1.257038   0.749937   x 
            xxxxxxxxxxxxxxxxxxxxxxxxxxxxxxxxxxxxxxxxxxxxxxxxxxxxxxxxxxxx


                         No user defined ionic velocities

                           -------------------------------
                                   Details of Species
                           -------------------------------

                               Mass of species in AMU
                                    P   30.9737600
                                    Cu   63.5460000

                          Electric Quadrupole Moment (Barn)
                                    P    1.0000000 No Isotope Defined
                                    Cu   -0.2200000 Isotope 63

                          Files used for pseudopotentials:
                                    P P_OTF.usp
                                    Cu Cu_OTF.usp

                           -------------------------------
                              k-Points For BZ Sampling
                           -------------------------------
                       MP grid size for SCF calculation is 10 10 10
                            with an offset of   0.000  0.000  0.000
                       Number of kpoints used =           500

                           -------------------------------
                               Symmetry and Constraints
                           -------------------------------

                      Maximum deviation from symmetry =  0.00000         ANG

                      Number of symmetry operations   =           1
                      Number of ionic constraints     =           3
                      Point group of crystal =     1: C1, 1, 1
                      Space group of crystal =    44: Imm2, I 2 -2

             Set iprint > 1 for details on symmetry rotations/translations

                         Centre of mass is constrained
             Set iprint > 1 for details of linear ionic constraints

                         Number of cell constraints= 0
                         Cell constraints are:  1 2 3 4 5 6

                         External pressure/stress (GPa)
                          0.00000   0.00000   0.00000
                                    0.00000   0.00000
                                              0.00000
 
 ==============================================================================
 +                           Vibrational Frequencies                          +
 +                           -----------------------                          +
 +                                                                            +
 + Performing frequency calculation at  310 wavevectors (q-pts)               +
 + ========================================================================== +
 +                                                                            +
 + -------------------------------------------------------------------------- +
 +  q-pt=    1 (  0.000000  0.000000  0.000000)     0.0032258065              +
 + -------------------------------------------------------------------------- +
 +  Acoustic sum rule correction <   7.315548 cm-1 applied                    +
 +     N      Frequency irrep.              ir active            raman active + 
 +                (cm-1)                                                      + 
 +                                                                            +
 +     1      -0.023859   a                     N                       N     + 
 +     2      -0.019480   a                     N                       N     + 
 +     3      -0.013774   a                     N                       N     + 
 +     4     144.455598   a                     Y                       Y     + 
 +     5     144.820039   a                     Y                       Y     + 
 +     6     145.727025   a                     Y                       Y     + 
 +     7     265.097197   a                     Y                       Y     + 
 +     8     265.196432   a                     Y                       Y     + 
 +     9     265.669303   a                     Y                       Y     + 
 + .......................................................................... +
 +        Character table from group theory analysis of eigenvectors          +
 +                           Point Group =   1, C1                            +
 + .......................................................................... +
 +  Rep  Mul |    E                                                           +
 +           | ----                                                           +
 + a A     9 |    1                                                           +
 + -------------------------------------------------------------------------- +
 +  q-pt=    2 (  0.013514 -0.013514  0.013514)     0.0032258065              +
 + -------------------------------------------------------------------------- +
 +  Acoustic sum rule correction <   2.209176 cm-1 applied                    +
 +     N      Frequency irrep.                                                + 
 +                (cm-1)                                                      + 
 +                                                                            +
 +     1       3.956177   a                                                   + 
 +     2       4.033581   a                                                   + 
 +     3       7.802956   a                                                   + 
 +     4     144.414547   a                                                   + 
 +     5     144.778405   a                                                   + 
 +     6     145.679192   a                                                   + 
 +     7     265.163580   a                                                   + 
 +     8     265.298368   a                                                   + 
 +     9     265.735122   a                                                   + 
 + .......................................................................... +
 +        Character table from group theory analysis of eigenvectors          +
 +                           Point Group =   1, C1                            +
 + .......................................................................... +
 +  Rep  Mul |    E                                                           +
 +           | ----                                                           +
 + a       9 |    1                                                           +
 + -------------------------------------------------------------------------- +
 +  q-pt=    3 (  0.027027 -0.027027  0.027027)     0.0032258065              +
 + -------------------------------------------------------------------------- +
 +  Acoustic sum rule correction <   4.677834 cm-1 applied                    +
 +     N      Frequency irrep.                                                + 
 +                (cm-1)                                                      + 
 +                                                                            +
 +     1       7.927454   a                                                   + 
 +     2       8.041671   a                                                   + 
 +     3      15.576397   a                                                   + 
 +     4     144.291558   a                                                   + 
 +     5     144.653736   a                                                   + 
 +     6     145.535806   a                                                   + 
 +     7     265.361496   a                                                   + 
 +     8     265.603787   a                                                   + 
 +     9     265.931726   a                                                   + 
 + .......................................................................... +
 +        Character table from group theory analysis of eigenvectors          +
 +                           Point Group =   1, C1                            +
 + .......................................................................... +
 +  Rep  Mul |    E                                                           +
 +           | ----                                                           +
 + a       9 |    1                                                           +
 + -------------------------------------------------------------------------- +
 +  q-pt=    4 (  0.040541 -0.040541  0.040541)     0.0032258065              +
 + -------------------------------------------------------------------------- +
 +  Acoustic sum rule correction <   2.422463 cm-1 applied                    +
 +     N      Frequency irrep.                                                + 
 +                (cm-1)                                                      + 
 +                                                                            +
 +     1      11.872484   a                                                   + 
 +     2      12.029473   a                                                   + 
 +     3      23.303701   a                                                   + 
 +     4     144.087110   a                                                   + 
 +     5     144.446702   a                                                   + 
 +     6     145.297211   a                                                   + 
 +     7     265.688179   a                                                   + 
 +     8     266.110452   a                                                   + 
 +     9     266.256728   a                                                   + 
 + .......................................................................... +
 +        Character table from group theory analysis of eigenvectors          +
 +                           Point Group =   1, C1                            +
 + .......................................................................... +
 +  Rep  Mul |    E                                                           +
 +           | ----                                                           +
 + a       9 |    1                                                           +
 + -------------------------------------------------------------------------- +
 +  q-pt=    5 (  0.054054 -0.054054  0.054054)     0.0032258065              +
 + -------------------------------------------------------------------------- +
 +  Acoustic sum rule correction <   1.705587 cm-1 applied                    +
 +     N      Frequency irrep.                                                + 
 +                (cm-1)                                                      + 
 +                                                                            +
 +     1      15.783909   a                                                   + 
 +     2      15.984993   a                                                   + 
 +     3      30.960703   a                                                   + 
 +     4     143.801982   a                                                   + 
 +     5     144.158380   a                                                   + 
 +     6     144.964007   a                                                   + 
 +     7     266.139416   a                                                   + 
 +     8     266.703971   a                                                   + 
 +     9     266.816588   a                                                   + 
 + .......................................................................... +
 +        Character table from group theory analysis of eigenvectors          +
 +                           Point Group =   1, C1                            +
 + .......................................................................... +
 +  Rep  Mul |    E                                                           +
 +           | ----                                                           +
 + a       9 |    1                                                           +
 + -------------------------------------------------------------------------- +
 +  q-pt=    6 (  0.067568 -0.067568  0.067568)     0.0032258065              +
 + -------------------------------------------------------------------------- +
 +  Acoustic sum rule correction <   1.320112 cm-1 applied                    +
 +     N      Frequency irrep.                                                + 
 +                (cm-1)                                                      + 
 +                                                                            +
 +     1      19.652477   a                                                   + 
 +     2      19.897356   a                                                   + 
 +     3      38.524581   a                                                   + 
 +     4     143.437216   a                                                   + 
 +     5     143.790175   a                                                   + 
 +     6     144.537087   a                                                   + 
 +     7     266.709430   a                                                   + 
 +     8     267.271213   a                                                   + 
 +     9     267.713547   a                                                   + 
 + .......................................................................... +
 +        Character table from group theory analysis of eigenvectors          +
 +                           Point Group =   1, C1                            +
 + .......................................................................... +
 +  Rep  Mul |    E                                                           +
 +           | ----                                                           +
 + a       9 |    1                                                           +
 + -------------------------------------------------------------------------- +
 +  q-pt=    7 (  0.081081 -0.081081  0.081081)     0.0032258065              +
 + -------------------------------------------------------------------------- +
 +  Acoustic sum rule correction <   1.075190 cm-1 applied                    +
 +     N      Frequency irrep.                                                + 
 +                (cm-1)                                                      + 
 +                                                                            +
 +     1      23.468910   a                                                   + 
 +     2      23.756471   a                                                   + 
 +     3      45.973405   a                                                   + 
 +     4     142.994079   a                                                   + 
 +     5     143.343711   a                                                   + 
 +     6     144.017711   a                                                   + 
 +     7     267.391023   a                                                   + 
 +     8     267.948902   a                                                   + 
 +     9     268.797215   a                                                   + 
 + .......................................................................... +
 +        Character table from group theory analysis of eigenvectors          +
 +                           Point Group =   1, C1                            +
 + .......................................................................... +
 +  Rep  Mul |    E                                                           +
 +           | ----                                                           +
 + a       9 |    1                                                           +
 + -------------------------------------------------------------------------- +
 +  q-pt=    8 (  0.094595 -0.094595  0.094595)     0.0032258065              +
 + -------------------------------------------------------------------------- +
 +  Acoustic sum rule correction <   0.904758 cm-1 applied                    +
 +     N      Frequency irrep.                                                + 
 +                (cm-1)                                                      + 
 +                                                                            +
 +     1      27.224379   a                                                   + 
 +     2      27.552975   a                                                   + 
 +     3      53.286235   a                                                   + 
 +     4     142.474000   a                                                   + 
 +     5     142.820663   a                                                   + 
 +     6     143.407645   a                                                   + 
 +     7     268.175759   a                                                   + 
 +     8     268.729046   a                                                   + 
 +     9     270.059332   a                                                   + 
 + .......................................................................... +
 +        Character table from group theory analysis of eigenvectors          +
 +                           Point Group =   1, C1                            +
 + .......................................................................... +
 +  Rep  Mul |    E                                                           +
 +           | ----                                                           +
 + a       9 |    1                                                           +
 + -------------------------------------------------------------------------- +
 +  q-pt=    9 (  0.108108 -0.108108  0.108108)     0.0032258065              +
 + -------------------------------------------------------------------------- +
 +  Acoustic sum rule correction <   0.778916 cm-1 applied                    +
 +     N      Frequency irrep.                                                + 
 +                (cm-1)                                                      + 
 +                                                                            +
 +     1      30.910696   a                                                   + 
 +     2      31.278277   a                                                   + 
 +     3      60.443263   a                                                   + 
 +     4     141.878506   a                                                   + 
 +     5     142.222440   a                                                   + 
 +     6     142.709480   a                                                   + 
 +     7     269.054167   a                                                   + 
 +     8     269.602250   a                                                   + 
 +     9     271.490696   a                                                   + 
 + .......................................................................... +
 +        Character table from group theory analysis of eigenvectors          +
 +                           Point Group =   1, C1                            +
 + .......................................................................... +
 +  Rep  Mul |    E                                                           +
 +           | ----                                                           +
 + a       9 |    1                                                           +
 + -------------------------------------------------------------------------- +
 +  q-pt=   10 (  0.121622 -0.121622  0.121622)     0.0032258065              +
 + -------------------------------------------------------------------------- +
 +  Acoustic sum rule correction <   0.681950 cm-1 applied                    +
 +     N      Frequency irrep.                                                + 
 +                (cm-1)                                                      + 
 +                                                                            +
 +     1      34.520447   a                                                   + 
 +     2      34.924626   a                                                   + 
 +     3      67.425971   a                                                   + 
 +     4     141.209070   a                                                   + 
 +     5     141.549402   a                                                   + 
 +     6     141.927488   a                                                   + 
 +     7     270.015949   a                                                   + 
 +     8     270.558268   a                                                   + 
 +     9     273.080853   a                                                   + 
 + .......................................................................... +
 +        Character table from group theory analysis of eigenvectors          +
 +                           Point Group =   1, C1                            +
 + .......................................................................... +
 +  Rep  Mul |    E                                                           +
 +           | ----                                                           +
 + a       9 |    1                                                           +
 + -------------------------------------------------------------------------- +
 +  q-pt=   11 (  0.135135 -0.135135  0.135135)     0.0032258065              +
 + -------------------------------------------------------------------------- +
 +  Acoustic sum rule correction <   0.604773 cm-1 applied                    +
 +     N      Frequency irrep.                                                + 
 +                (cm-1)                                                      + 
 +                                                                            +
 +     1      38.047073   a                                                   + 
 +     2      38.485179   a                                                   + 
 +     3      74.217265   a                                                   + 
 +     4     140.466793   a                                                   + 
 +     5     140.798234   a                                                   + 
 +     6     141.070533   a                                                   + 
 +     7     271.050187   a                                                   + 
 +     8     271.586239   a                                                   + 
 +     9     274.818139   a                                                   + 
 + .......................................................................... +
 +        Character table from group theory analysis of eigenvectors          +
 +                           Point Group =   1, C1                            +
 + .......................................................................... +
 +  Rep  Mul |    E                                                           +
 +           | ----                                                           +
 + a       9 |    1                                                           +
 + -------------------------------------------------------------------------- +
 +  q-pt=   12 (  0.148649 -0.148649  0.148649)     0.0032258065              +
 + -------------------------------------------------------------------------- +
 +  Acoustic sum rule correction <   0.541748 cm-1 applied                    +
 +     N      Frequency irrep.                                                + 
 +                (cm-1)                                                      + 
 +                                                                            +
 +     1      41.484944   a                                                   + 
 +     2      41.954058   a                                                   + 
 +     3      80.801601   a                                                   + 
 +     4     139.651347   a                                                   + 
 +     5     139.953460   a                                                   + 
 +     6     140.161590   a                                                   + 
 +     7     272.145560   a                                                   + 
 +     8     272.674900   a                                                   + 
 +     9     276.689742   a                                                   + 
 + .......................................................................... +
 +        Character table from group theory analysis of eigenvectors          +
 +                           Point Group =   1, C1                            +
 + .......................................................................... +
 +  Rep  Mul |    E                                                           +
 +           | ----                                                           +
 + a       9 |    1                                                           +
 + -------------------------------------------------------------------------- +
 +  q-pt=   13 (  0.162162 -0.162162  0.162162)     0.0032258065              +
 + -------------------------------------------------------------------------- +
 +  Acoustic sum rule correction <   0.489200 cm-1 applied                    +
 +     N      Frequency irrep.                                                + 
 +                (cm-1)                                                      + 
 +                                                                            +
 +     1      44.829402   a                                                   + 
 +     2      45.326396   a                                                   + 
 +     3      87.165076   a                                                   + 
 +     4     138.756729   a                                                   + 
 +     5     138.994338   a                                                   + 
 +     6     139.235115   a                                                   + 
 +     7     273.290533   a                                                   + 
 +     8     273.812779   a                                                   + 
 +     9     278.681785   a                                                   + 
 + .......................................................................... +
 +        Character table from group theory analysis of eigenvectors          +
 +                           Point Group =   1, C1                            +
 + .......................................................................... +
 +  Rep  Mul |    E                                                           +
 +           | ----                                                           +
 + a       9 |    1                                                           +
 + -------------------------------------------------------------------------- +
 +  q-pt=   14 (  0.175676 -0.175676  0.175676)     0.0032258065              +
 + -------------------------------------------------------------------------- +
 +  Acoustic sum rule correction <   0.444626 cm-1 applied                    +
 +     N      Frequency irrep.                                                + 
 +                (cm-1)                                                      + 
 +                                                                            +
 +     1      48.076794   a                                                   + 
 +     2      48.598364   a                                                   + 
 +     3      93.295503   a                                                   + 
 +     4     137.757001   a                                                   + 
 +     5     137.963341   a                                                   + 
 +     6     138.282858   a                                                   + 
 +     7     274.473555   a                                                   + 
 +     8     274.988392   a                                                   + 
 +     9     280.779418   a                                                   + 
 + .......................................................................... +
 +        Character table from group theory analysis of eigenvectors          +
 +                           Point Group =   1, C1                            +
 + .......................................................................... +
 +  Rep  Mul |    E                                                           +
 +           | ----                                                           +
 + a       9 |    1                                                           +
 + -------------------------------------------------------------------------- +
 +  q-pt=   15 (  0.189189 -0.189189  0.189189)     0.0032258065              +
 + -------------------------------------------------------------------------- +
 +  Acoustic sum rule correction <   0.406266 cm-1 applied                    +
 +     N      Frequency irrep.                                                + 
 +                (cm-1)                                                      + 
 +                                                                            +
 +     1      51.224490   a                                                   + 
 +     2      51.767195   a                                                   + 
 +     3      99.182440   a                                                   + 
 +     4     136.625451   a                                                   + 
 +     5     136.917610   a                                                   + 
 +     6     137.283317   a                                                   + 
 +     7     275.683217   a                                                   + 
 +     8     276.190404   a                                                   + 
 +     9     282.966932   a                                                   + 
 + .......................................................................... +
 +        Character table from group theory analysis of eigenvectors          +
 +                           Point Group =   1, C1                            +
 + .......................................................................... +
 +  Rep  Mul |    E                                                           +
 +           | ----                                                           +
 + a       9 |    1                                                           +
 + -------------------------------------------------------------------------- +
 +  q-pt=   16 (  0.202703 -0.202703  0.202703)     0.0032258065              +
 + -------------------------------------------------------------------------- +
 +  Acoustic sum rule correction <   0.372842 cm-1 applied                    +
 +     N      Frequency irrep.                                                + 
 +                (cm-1)                                                      + 
 +                                                                            +
 +     1      54.270878   a                                                   + 
 +     2      54.831175   a                                                   + 
 +     3     104.817181   a                                                   + 
 +     4     135.393666   a                                                   + 
 +     5     135.841816   a                                                   + 
 +     6     136.229898   a                                                   + 
 +     7     276.908415   a                                                   + 
 +     8     277.407781   a                                                   + 
 +     9     285.227881   a                                                   + 
 + .......................................................................... +
 +        Character table from group theory analysis of eigenvectors          +
 +                           Point Group =   1, C1                            +
 + .......................................................................... +
 +  Rep  Mul |    E                                                           +
 +           | ----                                                           +
 + a       9 |    1                                                           +
 + -------------------------------------------------------------------------- +
 +  q-pt=   17 (  0.216216 -0.216216  0.216216)     0.0032258065              +
 + -------------------------------------------------------------------------- +
 +  Acoustic sum rule correction <   0.343409 cm-1 applied                    +
 +     N      Frequency irrep.                                                + 
 +                (cm-1)                                                      + 
 +                                                                            +
 +     1      57.215351   a                                                   + 
 +     2      57.789634   a                                                   + 
 +     3     110.192700   a                                                   + 
 +     4     134.090290   a                                                   + 
 +     5     134.718561   a                                                   + 
 +     6     135.121880   a                                                   + 
 +     7     278.138474   a                                                   + 
 +     8     278.629923   a                                                   + 
 +     9     287.545228   a                                                   + 
 + .......................................................................... +
 +        Character table from group theory analysis of eigenvectors          +
 +                           Point Group =   1, C1                            +
 + .......................................................................... +
 +  Rep  Mul |    E                                                           +
 +           | ----                                                           +
 + a       9 |    1                                                           +
 + -------------------------------------------------------------------------- +
 +  q-pt=   18 (  0.229730 -0.229730  0.229730)     0.0032258065              +
 + -------------------------------------------------------------------------- +
 +  Acoustic sum rule correction <   0.317247 cm-1 applied                    +
 +     N      Frequency irrep.                                                + 
 +                (cm-1)                                                      + 
 +                                                                            +
 +     1      60.058276   a                                                   + 
 +     2      60.642918   a                                                   + 
 +     3     115.303482   a                                                   + 
 +     4     132.729211   a                                                   + 
 +     5     133.544468   a                                                   + 
 +     6     133.960333   a                                                   + 
 +     7     279.363261   a                                                   + 
 +     8     279.846773   a                                                   + 
 +     9     289.901493   a                                                   + 
 + .......................................................................... +
 +        Character table from group theory analysis of eigenvectors          +
 +                           Point Group =   1, C1                            +
 + .......................................................................... +
 +  Rep  Mul |    E                                                           +
 +           | ----                                                           +
 + a       9 |    1                                                           +
 + -------------------------------------------------------------------------- +
 +  q-pt=   19 (  0.243243 -0.243243  0.243243)     0.0032258065              +
 + -------------------------------------------------------------------------- +
 +  Acoustic sum rule correction <   0.293799 cm-1 applied                    +
 +     N      Frequency irrep.                                                + 
 +                (cm-1)                                                      + 
 +                                                                            +
 +     1      62.800946   a                                                   + 
 +     2      63.392339   a                                                   + 
 +     3     120.145021   a                                                   + 
 +     4     131.320654   a                                                   + 
 +     5     132.320580   a                                                   + 
 +     6     132.747138   a                                                   + 
 +     7     280.573272   a                                                   + 
 +     8     281.048900   a                                                   + 
 +     9     292.278919   a                                                   + 
 + .......................................................................... +
 +        Character table from group theory analysis of eigenvectors          +
 +                           Point Group =   1, C1                            +
 + .......................................................................... +
 +  Rep  Mul |    E                                                           +
 +           | ----                                                           +
 + a       9 |    1                                                           +
 + -------------------------------------------------------------------------- +
 +  q-pt=   20 (  0.256757 -0.256757  0.256757)     0.0032258065              +
 + -------------------------------------------------------------------------- +
 +  Acoustic sum rule correction <   0.272627 cm-1 applied                    +
 +     N      Frequency irrep.                                                + 
 +                (cm-1)                                                      + 
 +                                                                            +
 +     1      65.445522   a                                                   + 
 +     2      66.040122   a                                                   + 
 +     3     124.710957   a                                                   + 
 +     4     129.875445   a                                                   + 
 +     5     131.050715   a                                                   + 
 +     6     131.485190   a                                                   + 
 +     7     281.759705   a                                                   + 
 +     8     282.227571   a                                                   + 
 +     9     294.659650   a                                                   + 
 + .......................................................................... +
 +        Character table from group theory analysis of eigenvectors          +
 +                           Point Group =   1, C1                            +
 + .......................................................................... +
 +  Rep  Mul |    E                                                           +
 +           | ----                                                           +
 + a       9 |    1                                                           +
 + -------------------------------------------------------------------------- +
 +  q-pt=   21 (  0.270270 -0.270270  0.270270)     0.0032258065              +
 + -------------------------------------------------------------------------- +
 +  Acoustic sum rule correction <   0.253379 cm-1 applied                    +
 +     N      Frequency irrep.                                                + 
 +                (cm-1)                                                      + 
 +                                                                            +
 +     1      67.994957   a                                                   + 
 +     2      68.589328   a                                                   + 
 +     3     128.351144   a                                                   + 
 +     4     128.981187   a                                                   + 
 +     5     129.790838   a                                                   + 
 +     6     130.194713   a                                                   + 
 +     7     282.914504   a                                                   + 
 +     8     283.374798   a                                                   + 
 +     9     297.025897   a                                                   + 
 + .......................................................................... +
 +        Character table from group theory analysis of eigenvectors          +
 +                           Point Group =   1, C1                            +
 + .......................................................................... +
 +  Rep  Mul |    E                                                           +
 +           | ----                                                           +
 + a       9 |    1                                                           +
 + -------------------------------------------------------------------------- +
 +  q-pt=   22 (  0.283784 -0.283784  0.283784)     0.0032258065              +
 + -------------------------------------------------------------------------- +
 +  Acoustic sum rule correction <   0.235769 cm-1 applied                    +
 +     N      Frequency irrep.                                                + 
 +                (cm-1)                                                      + 
 +                                                                            +
 +     1      70.452909   a                                                   + 
 +     2      71.043774   a                                                   + 
 +     3     126.893681   a                                                   + 
 +     4     128.345894   a                                                   + 
 +     5     128.808374   a                                                   + 
 +     6     133.088168   a                                                   + 
 +     7     284.030392   a                                                   + 
 +     8     284.483361   a                                                   + 
 +     9     299.360117   a                                                   + 
 + .......................................................................... +
 +        Character table from group theory analysis of eigenvectors          +
 +                           Point Group =   1, C1                            +
 + .......................................................................... +
 +  Rep  Mul |    E                                                           +
 +           | ----                                                           +
 + a       9 |    1                                                           +
 + -------------------------------------------------------------------------- +
 +  q-pt=   23 (  0.297297 -0.297297  0.297297)     0.0032258065              +
 + -------------------------------------------------------------------------- +
 +  Acoustic sum rule correction <   0.219557 cm-1 applied                    +
 +     N      Frequency irrep.                                                + 
 +                (cm-1)                                                      + 
 +                                                                            +
 +     1      72.823636   a                                                   + 
 +     2      73.407928   a                                                   + 
 +     3     125.392301   a                                                   + 
 +     4     126.947823   a                                                   + 
 +     5     127.413703   a                                                   + 
 +     6     136.841380   a                                                   + 
 +     7     285.100877   a                                                   + 
 +     8     285.546826   a                                                   + 
 +     9     301.645179   a                                                   + 
 + .......................................................................... +
 +        Character table from group theory analysis of eigenvectors          +
 +                           Point Group =   1, C1                            +
 + .......................................................................... +
 +  Rep  Mul |    E                                                           +
 +           | ----                                                           +
 + a       9 |    1                                                           +
 + -------------------------------------------------------------------------- +
 +  q-pt=   24 (  0.310811 -0.310811  0.310811)     0.0032258065              +
 + -------------------------------------------------------------------------- +
 +  Acoustic sum rule correction <   0.204542 cm-1 applied                    +
 +     N      Frequency irrep.                                                + 
 +                (cm-1)                                                      + 
 +                                                                            +
 +     1      75.111879   a                                                   + 
 +     2      75.686801   a                                                   + 
 +     3     123.893033   a                                                   + 
 +     4     125.508228   a                                                   + 
 +     5     125.978469   a                                                   + 
 +     6     140.335636   a                                                   + 
 +     7     286.120252   a                                                   + 
 +     8     286.559531   a                                                   + 
 +     9     303.864513   a                                                   + 
 + .......................................................................... +
 +        Character table from group theory analysis of eigenvectors          +
 +                           Point Group =   1, C1                            +
 + .......................................................................... +
 +  Rep  Mul |    E                                                           +
 +           | ----                                                           +
 + a       9 |    1                                                           +
 + -------------------------------------------------------------------------- +
 +  q-pt=   25 (  0.324324 -0.324324  0.324324)     0.0032258065              +
 + -------------------------------------------------------------------------- +
 +  Acoustic sum rule correction <   0.190545 cm-1 applied                    +
 +     N      Frequency irrep.                                                + 
 +                (cm-1)                                                      + 
 +                                                                            +
 +     1      77.322728   a                                                   + 
 +     2      77.885816   a                                                   + 
 +     3     122.408413   a                                                   + 
 +     4     124.034145   a                                                   + 
 +     5     124.508302   a                                                   + 
 +     6     143.567746   a                                                   + 
 +     7     287.083571   a                                                   + 
 +     8     287.516570   a                                                   + 
 +     9     306.002258   a                                                   + 
 + .......................................................................... +
 +        Character table from group theory analysis of eigenvectors          +
 +                           Point Group =   1, C1                            +
 + .......................................................................... +
 +  Rep  Mul |    E                                                           +
 +           | ----                                                           +
 + a       9 |    1                                                           +
 + -------------------------------------------------------------------------- +
 +  q-pt=   26 (  0.337838 -0.337838  0.337838)     0.0032258065              +
 + -------------------------------------------------------------------------- +
 +  Acoustic sum rule correction <   0.177406 cm-1 applied                    +
 +     N      Frequency irrep.                                                + 
 +                (cm-1)                                                      + 
 +                                                                            +
 +     1      79.461464   a                                                   + 
 +     2      80.010673   a                                                   + 
 +     3     120.950115   a                                                   + 
 +     4     122.530334   a                                                   + 
 +     5     123.008097   a                                                   + 
 +     6     146.539961   a                                                   + 
 +     7     287.986615   a                                                   + 
 +     8     288.413759   a                                                   + 
 +     9     308.043378   a                                                   + 
 + .......................................................................... +
 +        Character table from group theory analysis of eigenvectors          +
 +                           Point Group =   1, C1                            +
 + .......................................................................... +
 +  Rep  Mul |    E                                                           +
 +           | ----                                                           +
 + a       9 |    1                                                           +
 + -------------------------------------------------------------------------- +
 +  q-pt=   27 (  0.351351 -0.351351  0.351351)     0.0032258065              +
 + -------------------------------------------------------------------------- +
 +  Acoustic sum rule correction <   0.164974 cm-1 applied                    +
 +     N      Frequency irrep.                                                + 
 +                (cm-1)                                                      + 
 +                                                                            +
 +     1      81.533382   a                                                   + 
 +     2      82.067180   a                                                   + 
 +     3     119.528706   a                                                   + 
 +     4     121.001923   a                                                   + 
 +     5     121.483726   a                                                   + 
 +     6     149.255617   a                                                   + 
 +     7     288.825851   a                                                   + 
 +     8     289.247587   a                                                   + 
 +     9     309.973765   a                                                   + 
 + .......................................................................... +
 +        Character table from group theory analysis of eigenvectors          +
 +                           Point Group =   1, C1                            +
 + .......................................................................... +
 +  Rep  Mul |    E                                                           +
 +           | ----                                                           +
 + a       9 |    1                                                           +
 + -------------------------------------------------------------------------- +
 +  q-pt=   28 (  0.364865 -0.364865  0.364865)     0.0032258065              +
 + -------------------------------------------------------------------------- +
 +  Acoustic sum rule correction <   0.153095 cm-1 applied                    +
 +     N      Frequency irrep.                                                + 
 +                (cm-1)                                                      + 
 +                                                                            +
 +     1      83.543561   a                                                   + 
 +     2      84.061075   a                                                   + 
 +     3     118.151836   a                                                   + 
 +     4     119.455359   a                                                   + 
 +     5     119.943369   a                                                   + 
 +     6     151.718450   a                                                   + 
 +     7     289.598372   a                                                   + 
 +     8     290.015166   a                                                   + 
 +     9     311.780324   a                                                   + 
 + .......................................................................... +
 +        Character table from group theory analysis of eigenvectors          +
 +                           Point Group =   1, C1                            +
 + .......................................................................... +
 +  Rep  Mul |    E                                                           +
 +           | ----                                                           +
 + a       9 |    1                                                           +
 + -------------------------------------------------------------------------- +
 +  q-pt=   29 (  0.378378 -0.378378  0.378378)     0.0032258065              +
 + -------------------------------------------------------------------------- +
 +  Acoustic sum rule correction <   0.141604 cm-1 applied                    +
 +     N      Frequency irrep.                                                + 
 +                (cm-1)                                                      + 
 +                                                                            +
 +     1      85.496580   a                                                   + 
 +     2      85.997794   a                                                   + 
 +     3     116.819427   a                                                   + 
 +     4     117.899940   a                                                   + 
 +     5     118.400902   a                                                   + 
 +     6     153.932330   a                                                   + 
 +     7     290.301840   a                                                   + 
 +     8     290.714170   a                                                   + 
 +     9     313.451035   a                                                   + 
 + .......................................................................... +
 +        Character table from group theory analysis of eigenvectors          +
 +                           Point Group =   1, C1                            +
 + .......................................................................... +
 +  Rep  Mul |    E                                                           +
 +           | ----                                                           +
 + a       9 |    1                                                           +
 + -------------------------------------------------------------------------- +
 +  q-pt=   30 (  0.391892 -0.391892  0.391892)     0.0032258065              +
 + -------------------------------------------------------------------------- +
 +  Acoustic sum rule correction <   0.130307 cm-1 applied                    +
 +     N      Frequency irrep.                                                + 
 +                (cm-1)                                                      + 
 +                                                                            +
 +     1      87.396105   a                                                   + 
 +     2      87.882177   a                                                   + 
 +     3     115.511142   a                                                   + 
 +     4     116.350103   a                                                   + 
 +     5     116.886311   a                                                   + 
 +     6     155.901101   a                                                   + 
 +     7     290.934416   a                                                   + 
 +     8     291.342766   a                                                   + 
 +     9     314.974995   a                                                   + 
 + .......................................................................... +
 +        Character table from group theory analysis of eigenvectors          +
 +                           Point Group =   1, C1                            +
 + .......................................................................... +
 +  Rep  Mul |    E                                                           +
 +           | ----                                                           +
 + a       9 |    1                                                           +
 + -------------------------------------------------------------------------- +
 +  q-pt=   31 (  0.405405 -0.405405  0.405405)     0.0032258065              +
 + -------------------------------------------------------------------------- +
 +  Acoustic sum rule correction <   0.118964 cm-1 applied                    +
 +     N      Frequency irrep.                                                + 
 +                (cm-1)                                                      + 
 +                                                                            +
 +     1      89.244261   a                                                   + 
 +     2      89.718042   a                                                   + 
 +     3     114.166425   a                                                   + 
 +     4     114.820067   a                                                   + 
 +     5     115.471471   a                                                   + 
 +     6     157.628467   a                                                   + 
 +     7     291.494697   a                                                   + 
 +     8     291.899553   a                                                   + 
 +     9     316.342451   a                                                   + 
 + .......................................................................... +
 +        Character table from group theory analysis of eigenvectors          +
 +                           Point Group =   1, C1                            +
 + .......................................................................... +
 +  Rep  Mul |    E                                                           +
 +           | ----                                                           +
 + a       9 |    1                                                           +
 + -------------------------------------------------------------------------- +
 +  q-pt=   32 (  0.418919 -0.418919  0.418919)     0.0032258065              +
 + -------------------------------------------------------------------------- +
 +  Acoustic sum rule correction <   0.107258 cm-1 applied                    +
 +     N      Frequency irrep.                                                + 
 +                (cm-1)                                                      + 
 +                                                                            +
 +     1      91.040541   a                                                   + 
 +     2      91.507489   a                                                   + 
 +     3     112.719670   a                                                   + 
 +     4     113.295958   a                                                   + 
 +     5     114.264015   a                                                   + 
 +     6     159.117888   a                                                   + 
 +     7     291.981641   a                                                   + 
 +     8     292.383486   a                                                   + 
 +     9     317.544813   a                                                   + 
 + .......................................................................... +
 +        Character table from group theory analysis of eigenvectors          +
 +                           Point Group =   1, C1                            +
 + .......................................................................... +
 +  Rep  Mul |    E                                                           +
 +           | ----                                                           +
 + a       9 |    1                                                           +
 + -------------------------------------------------------------------------- +
 +  q-pt=   33 (  0.432432 -0.432432  0.432432)     0.0032258065              +
 + -------------------------------------------------------------------------- +
 +  Acoustic sum rule correction <   0.094766 cm-1 applied                    +
 +     N      Frequency irrep.                                                + 
 +                (cm-1)                                                      + 
 +                                                                            +
 +     1      92.779749   a                                                   + 
 +     2      93.249580   a                                                   + 
 +     3     111.191488   a                                                   + 
 +     4     111.761314   a                                                   + 
 +     5     113.293306   a                                                   + 
 +     6     160.372505   a                                                   + 
 +     7     292.394503   a                                                   + 
 +     8     292.793817   a                                                   + 
 +     9     318.574660   a                                                   + 
 + .......................................................................... +
 +        Character table from group theory analysis of eigenvectors          +
 +                           Point Group =   1, C1                            +
 + .......................................................................... +
 +  Rep  Mul |    E                                                           +
 +           | ----                                                           +
 + a       9 |    1                                                           +
 + -------------------------------------------------------------------------- +
 +  q-pt=   34 (  0.445946 -0.445946  0.445946)     0.0032258065              +
 + -------------------------------------------------------------------------- +
 +  Acoustic sum rule correction <   0.080948 cm-1 applied                    +
 +     N      Frequency irrep.                                                + 
 +                (cm-1)                                                      + 
 +                                                                            +
 +     1      94.447730   a                                                   + 
 +     2      94.937468   a                                                   + 
 +     3     109.639587   a                                                   + 
 +     4     110.240520   a                                                   + 
 +     5     112.522656   a                                                   + 
 +     6     161.395079   a                                                   + 
 +     7     292.732774   a                                                   + 
 +     8     293.130028   a                                                   + 
 +     9     319.425736   a                                                   + 
 + .......................................................................... +
 +        Character table from group theory analysis of eigenvectors          +
 +                           Point Group =   1, C1                            +
 + .......................................................................... +
 +  Rep  Mul |    E                                                           +
 +           | ----                                                           +
 + a       9 |    1                                                           +
 + -------------------------------------------------------------------------- +
 +  q-pt=   35 (  0.459459 -0.459459  0.459459)     0.0032258065              +
 + -------------------------------------------------------------------------- +
 +  Acoustic sum rule correction <   0.090216 cm-1 applied                    +
 +     N      Frequency irrep.                                                + 
 +                (cm-1)                                                      + 
 +                                                                            +
 +     1      96.011746   a                                                   + 
 +     2      96.551092   a                                                   + 
 +     3     108.113442   a                                                   + 
[...]
 +     3     109.639660   a                                                   + 
 +     4     116.801540   a                                                   + 
 +     5     117.511312   a                                                   + 
 +     6     158.410907   a                                                   + 
 +     7     292.966684   a                                                   + 
 +     8     304.245399   a                                                   + 
 +     9     312.845986   a                                                   + 
 + .......................................................................... +
 +        Character table from group theory analysis of eigenvectors          +
 +                           Point Group =   1, C1                            +
 + .......................................................................... +
 +  Rep  Mul |    E                                                           +
 +           | ----                                                           +
 + a       9 |    1                                                           +
 + -------------------------------------------------------------------------- +
 +  q-pt=  305 (  0.200000  0.200000  0.300000)     0.0032258065              +
 + -------------------------------------------------------------------------- +
 +  Acoustic sum rule correction <   0.096824 cm-1 applied                    +
 +     N      Frequency irrep.                                                + 
 +                (cm-1)                                                      + 
 +                                                                            +
 +     1      96.327991   a                                                   + 
 +     2     105.990862   a                                                   + 
 +     3     109.108610   a                                                   + 
 +     4     115.342615   a                                                   + 
 +     5     116.692864   a                                                   + 
 +     6     158.945851   a                                                   + 
 +     7     293.880610   a                                                   + 
 +     8     305.254047   a                                                   + 
 +     9     311.672926   a                                                   + 
 + .......................................................................... +
 +        Character table from group theory analysis of eigenvectors          +
 +                           Point Group =   1, C1                            +
 + .......................................................................... +
 +  Rep  Mul |    E                                                           +
 +           | ----                                                           +
 + a       9 |    1                                                           +
 + -------------------------------------------------------------------------- +
 +  q-pt=  306 (  0.210000  0.210000  0.290000)     0.0032258065              +
 + -------------------------------------------------------------------------- +
 +  Acoustic sum rule correction <   0.094680 cm-1 applied                    +
 +     N      Frequency irrep.                                                + 
 +                (cm-1)                                                      + 
 +                                                                            +
 +     1      98.187204   a                                                   + 
 +     2     106.647595   a                                                   + 
 +     3     108.666443   a                                                   + 
 +     4     113.755670   a                                                   + 
 +     5     116.043060   a                                                   + 
 +     6     159.405162   a                                                   + 
 +     7     294.756453   a                                                   + 
 +     8     306.103006   a                                                   + 
 +     9     310.579637   a                                                   + 
 + .......................................................................... +
 +        Character table from group theory analysis of eigenvectors          +
 +                           Point Group =   1, C1                            +
 + .......................................................................... +
 +  Rep  Mul |    E                                                           +
 +           | ----                                                           +
 + a       9 |    1                                                           +
 + -------------------------------------------------------------------------- +
 +  q-pt=  307 (  0.220000  0.220000  0.280000)     0.0032258065              +
 + -------------------------------------------------------------------------- +
 +  Acoustic sum rule correction <   0.093382 cm-1 applied                    +
 +     N      Frequency irrep.                                                + 
 +                (cm-1)                                                      + 
 +                                                                            +
 +     1     100.023906   a                                                   + 
 +     2     107.125186   a                                                   + 
 +     3     108.327614   a                                                   + 
 +     4     112.115655   a                                                   + 
 +     5     115.526820   a                                                   + 
 +     6     159.773538   a                                                   + 
 +     7     295.551895   a                                                   + 
 +     8     306.778155   a                                                   + 
 +     9     309.611574   a                                                   + 
 + .......................................................................... +
 +        Character table from group theory analysis of eigenvectors          +
 +                           Point Group =   1, C1                            +
 + .......................................................................... +
 +  Rep  Mul |    E                                                           +
 +           | ----                                                           +
 + a       9 |    1                                                           +
 + -------------------------------------------------------------------------- +
 +  q-pt=  308 (  0.230000  0.230000  0.270000)     0.0032258065              +
 + -------------------------------------------------------------------------- +
 +  Acoustic sum rule correction <   0.092733 cm-1 applied                    +
 +     N      Frequency irrep.                                                + 
 +                (cm-1)                                                      + 
 +                                                                            +
 +     1     101.798812   a                                                   + 
 +     2     107.398128   a                                                   + 
 +     3     108.115011   a                                                   + 
 +     4     110.475287   a                                                   + 
 +     5     115.154842   a                                                   + 
 +     6     160.038619   a                                                   + 
 +     7     296.207945   a                                                   + 
 +     8     307.268142   a                                                   + 
 +     9     308.830277   a                                                   + 
 + .......................................................................... +
 +        Character table from group theory analysis of eigenvectors          +
 +                           Point Group =   1, C1                            +
 + .......................................................................... +
 +  Rep  Mul |    E                                                           +
 +           | ----                                                           +
 + a       9 |    1                                                           +
 + -------------------------------------------------------------------------- +
 +  q-pt=  309 (  0.240000  0.240000  0.260000)     0.0032258065              +
 + -------------------------------------------------------------------------- +
 +  Acoustic sum rule correction <   0.089983 cm-1 applied                    +
 +     N      Frequency irrep.                                                + 
 +                (cm-1)                                                      + 
 +                                                                            +
 +     1     103.396558   a                                                   + 
 +     2     107.456126   a                                                   + 
 +     3     108.020768   a                                                   + 
 +     4     108.967498   a                                                   + 
 +     5     114.944035   a                                                   + 
 +     6     160.191319   a                                                   + 
 +     7     296.651439   a                                                   + 
 +     8     307.564469   a                                                   + 
 +     9     308.310976   a                                                   + 
 + .......................................................................... +
 +        Character table from group theory analysis of eigenvectors          +
 +                           Point Group =   1, C1                            +
 + .......................................................................... +
 +  Rep  Mul |    E                                                           +
 +           | ----                                                           +
 + a       9 |    1                                                           +
 + -------------------------------------------------------------------------- +
 +  q-pt=  310 (  0.250000  0.250000  0.250000)     0.0032258065              +
 + -------------------------------------------------------------------------- +
 +  Acoustic sum rule correction <   0.073641 cm-1 applied                    +
 +     N      Frequency irrep.                                                + 
 +                (cm-1)                                                      + 
 +                                                                            +
 +     1     104.324032   a                                                   + 
 +     2     107.386993   a                                                   + 
 +     3     107.880474   a                                                   + 
 +     4     108.162140   a                                                   + 
 +     5     114.904735   a                                                   + 
 +     6     160.226025   a                                                   + 
 +     7     296.813514   a                                                   + 
 +     8     307.662510   a                                                   + 
 +     9     308.123218   a                                                   + 
 + .......................................................................... +
 +        Character table from group theory analysis of eigenvectors          +
 +                           Point Group =   1, C1                            +
 + .......................................................................... +
 +  Rep  Mul |    E                                                           +
 +           | ----                                                           +
 + a       9 |    1                                                           +
 ==============================================================================

  =====================================================================
                             Thermodynamics
                             ==============

            Zero-point energy =         0.093412  eV
 ------------------------------------------------------------------------------ 
       T(K)        E(eV)           F(eV)         S(J/mol/K)      Cv(J/mol/K)   
 ------------------------------------------------------------------------------ 
      50.0        0.098557        0.089968          16.573          24.686     
     145.0        0.142535        0.050865          60.998          57.799     
     240.0        0.204959       -0.025747          92.749          67.215     
     335.0        0.273022       -0.128941         115.772          70.549     
     430.0        0.343308       -0.252035         133.586          72.047     
     525.0        0.414672       -0.390909         148.051          72.836     
     620.0        0.486634       -0.542824         160.206          73.301     
     715.0        0.558962       -0.705838         170.678          73.596     
     810.0        0.631530       -0.878507         179.872          73.795     
     905.0        0.704262       -1.059717         188.064          73.936     
    1000.0        0.777113       -1.248581         195.450          74.039     
 ------------------------------------------------------------------------------ 

 ==============================================================================
                      Atomic Displacement Parameters (A**2)
                      ==============================

 ------------------------------------------------------------------------------ 
      T(K)  Ion        U11       U22       U33       U23       U31       U12    
 ------------------------------------------------------------------------------ 
      50.0  P 1      0.014970  0.014259  0.015079 -0.001327 -0.000890 -0.001323
      50.0  Cu 1     0.015001  0.014293  0.015159 -0.001280 -0.000878 -0.001347
      50.0  Cu 2     0.015087  0.014296  0.015185 -0.001362 -0.000907 -0.001281
     145.0  P 1      0.039695  0.037655  0.040007 -0.003809 -0.002547 -0.003798
     145.0  Cu 1     0.040847  0.038800  0.041301 -0.003703 -0.002535 -0.003894
     145.0  Cu 2     0.041095  0.038808  0.041376 -0.003937 -0.002622 -0.003704
     240.0  P 1      0.064886  0.061512  0.065403 -0.006303 -0.004214 -0.006284
     240.0  Cu 1     0.067168  0.063779  0.067918 -0.006129 -0.004196 -0.006445
     240.0  Cu 2     0.067578  0.063792  0.068042 -0.006517 -0.004339 -0.006131
     335.0  P 1      0.090225  0.085515  0.090946 -0.008797 -0.005882 -0.008771
     335.0  Cu 1     0.093578  0.088848  0.094626 -0.008554 -0.005857 -0.008997
     335.0  Cu 2     0.094151  0.088866  0.094799 -0.009096 -0.006057 -0.008558
     430.0  P 1      0.115622  0.109576  0.116547 -0.011291 -0.007550 -0.011258
     430.0  Cu 1     0.120021  0.113950  0.121366 -0.010980 -0.007518 -0.011548
     430.0  Cu 2     0.120756  0.113973  0.121587 -0.011676 -0.007774 -0.010985
     525.0  P 1      0.141047  0.133666  0.142177 -0.013786 -0.009218 -0.013745
     525.0  Cu 1     0.146479  0.139066  0.148120 -0.013406 -0.009178 -0.014099
     525.0  Cu 2     0.147375  0.139094  0.148391 -0.014255 -0.009492 -0.013412
     620.0  P 1      0.166489  0.157772  0.167822 -0.016280 -0.010886 -0.016233
     620.0  Cu 1     0.172944  0.164190  0.174883 -0.015832 -0.010839 -0.016651
     620.0  Cu 2     0.174003  0.164223  0.175203 -0.016835 -0.011210 -0.015839
     715.0  P 1      0.191940  0.181887  0.193478 -0.018775 -0.012554 -0.018720
     715.0  Cu 1     0.199415  0.189319  0.201651 -0.018258 -0.012500 -0.019202
     715.0  Cu 2     0.200636  0.189357  0.202019 -0.019415 -0.012927 -0.018266
     810.0  P 1      0.217397  0.206008  0.219139 -0.021269 -0.014222 -0.021207
     810.0  Cu 1     0.225888  0.214451  0.228421 -0.020684 -0.014161 -0.021753
     810.0  Cu 2     0.227272  0.214495  0.228839 -0.021994 -0.014645 -0.020693
     905.0  P 1      0.242859  0.230135  0.244805 -0.023764 -0.015890 -0.023694
     905.0  Cu 1     0.252364  0.239585  0.255194 -0.023110 -0.015822 -0.024304
     905.0  Cu 2     0.253910  0.239634  0.255660 -0.024574 -0.016362 -0.023120
    1000.0  P 1      0.268323  0.254264  0.270475 -0.026258 -0.017558 -0.026182
    1000.0  Cu 1     0.278841  0.264721  0.281968 -0.025536 -0.017483 -0.026856
    1000.0  Cu 2     0.280549  0.264775  0.282484 -0.027153 -0.018080 -0.025547
 ------------------------------------------------------------------------------ 


 ******************** Constrained Forces ********************
 *                                                          *
 *               Cartesian components (eV/A)                *
 * -------------------------------------------------------- *
 *                         x            y            z      *
 *                                                          *
 * P               1      0.00000      0.00002      0.00291 *
 * Cu              1      0.00003     -0.00240     -0.00149 *
 * Cu              2     -0.00003      0.00238     -0.00143 *
 *                                                          *
 ************************************************************

 ***************** Stress Tensor *****************
 *                                               *
 *          Cartesian components (GPa)           *
 * --------------------------------------------- *
 *             x             y             z     *
 *                                               *
 *  x      0.235989      0.011189      0.012999  *
 *  y      0.011189      0.046381      0.011180  *
 *  z      0.012999      0.011180      0.278816  *
 *                                               *
 *  Pressure:   -0.1871                          *
 *                                               *
 *************************************************

 Pseudo atomic calculation performed for P 3s2 3p3

 Converged in 26 iterations to a total energy of -214.2208 eV


 Pseudo atomic calculation performed for Cu 3d10 4s1

 Converged in 79 iterations to a total energy of -1676.8614 eV

Charge spilling parameter for spin component 1 = 0.23%

     Atomic Populations (Mulliken)
     -----------------------------
Species          Ion     s      p      d      f     Total  Charge (e)
=====================================================================
  P               1     1.61   3.64   0.00   0.00   5.25    -0.25
  Cu              1     0.63   0.56   9.69   0.00  10.88     0.12
  Cu              2     0.63   0.56   9.69   0.00  10.88     0.12
=====================================================================

                 Bond                   Population      Length (A)
======================================================================
               P 1 -- Cu 2                   1.24        2.38157
               P 1 -- Cu 1                   1.24        2.38157
              Cu 1 -- Cu 2                  -0.08        2.74729
======================================================================


Writing analysis data to CuP-aw2v56-a_final_prim-05.castep_bin

Writing model to CuP-aw2v56-a_final_prim-05.check
Initialisation time =      2.73 s
Calculation time    =      1.02 s
Finalisation time   =      0.36 s
Total time          =      4.10 s
Peak Memory Use     = 761336 kB
  
Overall parallel efficiency rating: Terrible (32%)                              
  
Data was distributed by:-
k-point (56-way); efficiency rating: Terrible (34%)                             
  
Parallel notes:
1) Calculation only took 3.8 s, so efficiency estimates may be inaccurate.      
