 +-------------------------------------------------+
 |                                                 |
 |      CCC   AA    SSS  TTTTT  EEEEE  PPPP        |
 |     C     A  A  S       T    E      P   P       |
 |     C     AAAA   SS     T    EEE    PPPP        |
 |     C     A  A     S    T    E      P           |
 |      CCC  A  A  SSS     T    EEEEE  P           |
 |                                                 |
 +-------------------------------------------------+
 |                                                 |
 | Welcome to Academic Release CASTEP version 18.1 |          
 | Ab Initio Total Energy Program                  |
 |                                                 |
 | Authors:                                        |
 | M. Segall, M. Probert, C. Pickard, P. Hasnip,   |
 | S. Clark, K. Refson, J. R. Yates, M. Payne      |
 |                                                 |
 | Contributors:                                   |
 | P. Lindan, P. Haynes, J. White, V. Milman,      |
 | N. Govind, M. Gibson, P. Tulip, V. Cocula,      |
 | B. Montanari, D. Quigley, M. Glover,            |
 | L. Bernasconi, A. Perlov, M. Plummer,           |
 | E. McNellis, J. Meyer, J. Gale, D. Jochym       |
 | J. Aarons, B. Walker, R. Gillen, D. Jones       |
 | T. Green, I. J. Bush, C. J. Armstrong,          |
 | E. J. Higgins, E. L. Brown, M. S. McFly,        |
 | J. Wilkins, B-C. Shih, P. J. P. Byrne           |
 |                                                 |
 | Copyright (c) 2000 - 2017                       |
 |                                                 |
 |     Distributed under the terms of an           |
 |     Agreement between the United Kingdom        |
 |     Car-Parrinello (UKCP) Consortium,           |
 |     Daresbury Laboratory and Accelrys, Inc.     |
 |                                                 |
 | Please cite                                     |
 |                                                 |
 |     "First principles methods using CASTEP"     |
 |                                                 |
 |         Zeitschrift fuer Kristallographie       |
 |           220(5-6) pp. 567-570 (2005)           |
 |                                                 |
 | S. J. Clark, M. D. Segall, C. J. Pickard,       |
 | P. J. Hasnip, M. J. Probert, K. Refson,         |
 | M. C. Payne                                     |
 |                                                 |
 |       in all publications arising from          |
 |              your use of CASTEP                 |
 |                                                 |
 +-------------------------------------------------+
 
 
 Compiled for linux_x86_64_ifort17-TCM on Fri, 20 Apr 2018 19:07:16 +0100
 from code version baee3ec33e17+  Mon, 11 Dec 2017 11:05:17 +0000
 Compiler: Intel Fortran 17.0.5.239; Optimisation: fast
 MATHLIBS: Intel MKL(2017.0.4) (LAPACK version 3.7.0)
 FFT Lib : mkl
 Fundamental constants values: CODATA 2014
 
 Run started: Mon, 21 Jan 2019 17:29:13 +0000
 
 Atomic calculation performed for Fe: 1s2 2s2 2p6 3s2 3p6 3d6 4s2
 
 Converged in 96 iterations to an ae energy of -34625.101 eV
 
   ============================================================                
   | Pseudopotential Report - Date of generation 21-01-2019   |                
   ------------------------------------------------------------                
   | Element: Fe Ionic charge:  8.00 Level of theory: PBE     |                
   | Atomic Solver: Koelling-Harmon                           |                
   |                                                          |                
   |               Reference Electronic Structure             |                
   |         Orbital         Occupation         Energy        |                
   |            3d              6.000           -0.276        |                
   |            4s              2.000           -0.194        |                
   |                                                          |                
   |                 Pseudopotential Definition               |                
   |        Beta     l      e      Rc     scheme   norm       |                
   |          1      0   -0.194   1.997     qc      0         |                
   |          2      0    0.250   1.997     qc      0         |                
   |          3      1    0.000   1.997     qc      0         |                
   |          4      1    0.250   1.997     qc      0         |                
   |          5      2   -0.276   1.997     qc      0         |                
   |          6      2    0.250   1.997     qc      0         |                
   |         loc     3    0.000   2.207     pn      0         |                
   |                                                          |                
   | Augmentation charge Rinner = 1.000                       |                
   | Partial core correction Rc = 1.000                       |                
   ------------------------------------------------------------                
   | "3|2.2|2.0|1.0|8|9|10|40:41:32(qc=5)"                    |                
   ------------------------------------------------------------                
   |      Author: Chris J. Pickard, Cambridge University      |                
   ============================================================                
 
 Pseudo atomic calculation performed for Fe 3d6 4s2
 
 Converged in 31 iterations to a total energy of -854.5743 eV
 
 Calculation parallelised over 20 processes.
 Data is distributed by k-point(20-way)

 ************************************ Title ************************************
 

 ***************************** General Parameters ******************************
  
 output verbosity                               : normal  (1)
 write checkpoint data to                       : Fe-OQMD_22514-CollCode183262.check
 type of calculation                            : single point energy
 stress calculation                             : off
 density difference calculation                 : off
 electron localisation func (ELF) calculation   : off
 Hirshfeld analysis                             : off
 unlimited duration calculation
 timing information                             : on
 memory usage estimate                          : on
 write extra output files                       : on
 write final potential to formatted file        : off
 write final density to formatted file          : off
 write BibTeX reference list                    : on
 write OTFG pseudopotential files               : on
 write electrostatic potential file             : on
 write bands file                               : on
 checkpoint writing                             : both castep_bin and check files
  
 output         length unit                     : A
 output           mass unit                     : amu
 output           time unit                     : ps
 output         charge unit                     : e
 output           spin unit                     : hbar/2
 output         energy unit                     : eV
 output          force unit                     : eV/A
 output       velocity unit                     : A/ps
 output       pressure unit                     : GPa
 output     inv_length unit                     : 1/A
 output      frequency unit                     : cm-1
 output force constant unit                     : eV/A**2
 output         volume unit                     : A**3
 output   IR intensity unit                     : (D/A)**2/amu
 output         dipole unit                     : D
 output         efield unit                     : eV/A/e
 output        entropy unit                     : J/mol/K
  
 wavefunctions paging                           : none
 random number generator seed                   : randomised (172913862)
 data distribution                              : optimal for this architecture
 optimization strategy                          : balance speed and memory

 *********************** Exchange-Correlation Parameters ***********************
  
 using functional                               : Perdew Burke Ernzerhof
 relativistic treatment                         : Koelling-Harmon
 DFT+D: Semi-empirical dispersion correction    : off

 ************************* Pseudopotential Parameters **************************
  
 pseudopotential representation                 : reciprocal space
 <beta|phi> representation                      : reciprocal space
 spin-orbit coupling                            : off

 **************************** Basis Set Parameters *****************************
  
 plane wave basis set cut-off                   :   500.0000   eV
 size of standard grid                          :     1.7500
 size of   fine   gmax                          :    20.0476   1/A
 finite basis set correction                    : none

 **************************** Electronic Parameters ****************************
  
 number of  electrons                           :  16.00    
 net charge of system                           :  0.000    
 net spin   of system                           :  5.000    
 number of  up  spins                           :  10.50    
 number of down spins                           :  5.500    
 treating system as spin-polarized
 number of bands                                :         15

 ********************* Electronic Minimization Parameters **********************
  
 Method: Treating system as metallic with density mixing treatment of electrons,
         and number of  SD  steps               :          1
         and number of  CG  steps               :          4
  
 total energy / atom convergence tol.           : 0.1000E-04   eV
 eigen-energy convergence tolerance             : 0.1000E-05   eV
 max force / atom convergence tol.              : ignored
 convergence tolerance window                   :          3   cycles
 max. number of SCF cycles                      :         30
 number of fixed-spin iterations                :         10
 smearing scheme                                : Gaussian
 smearing width                                 : 0.2000       eV
 Fermi energy convergence tolerance             : 0.2721E-13   eV
 periodic dipole correction                     : NONE

 ************************** Density Mixing Parameters **************************
  
 density-mixing scheme                          : Broyden
 max. length of mixing history                  :         20
 charge density mixing amplitude                : 0.8000    
   spin density mixing amplitude                :  2.000    
 cut-off energy for mixing                      :  500.0       eV

 *********************** Population Analysis Parameters ************************
  
 Population analysis with cutoff                :  3.000       A
 Population analysis output                     : summary and pdos components

 *******************************************************************************
  
 
                           -------------------------------
                                      Unit Cell
                           -------------------------------
        Real Lattice(A)                      Reciprocal Lattice(1/A)
     2.7723490     0.0000000     0.0000000        2.266376025   0.000000000   0.000000000
     0.0000000     2.7723490     0.0000000        0.000000000   2.266376025   0.000000000
     0.0000000     0.0000000     2.7723490        0.000000000   0.000000000   2.266376025
 
                       Lattice parameters(A)       Cell Angles
                    a =      2.772349          alpha =   90.000000
                    b =      2.772349          beta  =   90.000000
                    c =      2.772349          gamma =   90.000000
 
                       Current cell volume =            21.308050       A**3
                                   density =             5.241681   AMU/A**3
                                           =             8.704016     g/cm^3
 
                           -------------------------------
                                     Cell Contents
                           -------------------------------
                         Total number of ions in cell =    2
                      Total number of species in cell =    1
                        Max number of any one species =    2
 
            xxxxxxxxxxxxxxxxxxxxxxxxxxxxxxxxxxxxxxxxxxxxxxxxxxxxxxxxxxxx
            x  Element    Atom        Fractional coordinates of atoms  x
            x            Number           u          v          w      x
            x----------------------------------------------------------x
            x  Fe           1         0.000000   0.000000   0.000000   x 
            x  Fe           2         0.500002   0.500002   0.500002   x 
            xxxxxxxxxxxxxxxxxxxxxxxxxxxxxxxxxxxxxxxxxxxxxxxxxxxxxxxxxxxx
 
 
                         No user defined ionic velocities
 
                           -------------------------------
                                   Details of Species
                           -------------------------------
 
                               Mass of species in AMU
                                    Fe   55.8450000
 
                          Electric Quadrupole Moment (Barn)
                                    Fe    0.1600000 Isotope 57
         xxxxxxxxxxxxxxxxxxxxxxxxxxxxxxxxxxxxxxxxxxxxxxxxxxxxxxxxxxxxxxxxxxxxxx
         |  Element    Atom         Initial            Initial magnetic       |
         |            Number    spin polarization        moment (uB)          |
         |--------------------------------------------------------------------|
         | Fe             1         0.625000              5.000               |
         | Fe             2         0.000000              0.000               |
         xxxxxxxxxxxxxxxxxxxxxxxxxxxxxxxxxxxxxxxxxxxxxxxxxxxxxxxxxxxxxxxxxxxxxx
 
 
                          Files used for pseudopotentials:
                                    Fe 3|2.2|2.0|1.0|8|9|10|40:41:32(qc=5)
 
                           -------------------------------
                              k-Points For BZ Sampling
                           -------------------------------
                       MP grid size for SCF calculation is  7  7  7
                            with an offset of   0.000  0.000  0.000
                       Number of kpoints used =           172
 
                           -------------------------------
                               Symmetry and Constraints
                           -------------------------------
 
                      Cell is a supercell containing 2 primitive cells
                      Maximum deviation from symmetry =  0.00000         ANG
 
                      Number of symmetry operations   =           1
                      Number of ionic constraints     =           3
                      Point group of crystal =     1: C1, 1, 1
                      Space group of crystal =   229: Im-3m, -I 4 2 3
 
             Set iprint > 1 for details on symmetry rotations/translations
 
                         Centre of mass is constrained
             Set iprint > 1 for details of linear ionic constraints
 
                         Number of cell constraints= 0
                         Cell constraints are:  1 2 3 4 5 6
 
                         External pressure/stress (GPa)
                          0.00000   0.00000   0.00000
                                    0.00000   0.00000
                                              0.00000
  
+---------------- MEMORY AND SCRATCH DISK ESTIMATES PER PROCESS --------------+
|                                                     Memory          Disk    |
| Baseline code, static data and system overhead      408.0 MB         0.0 MB |
| BLAS internal memory storage                          0.0 MB         0.0 MB |
| Model and support data                               20.1 MB         8.1 MB |
| Electronic energy minimisation requirements           7.9 MB         0.0 MB |
| Force calculation requirements                        1.3 MB         0.0 MB |
|                                               ----------------------------- |
| Approx. total storage required per process          436.0 MB         8.1 MB |
|                                                                             |
| Requirements will fluctuate during execution and may exceed these estimates |
+-----------------------------------------------------------------------------+
Calculating total energy with cut-off of  500.000 eV.
------------------------------------------------------------------------ <-- SCF
SCF loop      Energy           Fermi           Energy gain       Timer   <-- SCF
                               energy          per atom          (sec)   <-- SCF
------------------------------------------------------------------------ <-- SCF
Initial  -1.45757461E+003  0.00000000E+000                         7.90  <-- SCF
      1  -1.69884473E+003  1.02100999E+001   1.20635057E+002       8.38  <-- SCF
      2  -1.72461832E+003  8.21195163E+000   1.28867981E+001       8.79  <-- SCF
      3  -1.72603228E+003  8.16220031E+000   7.06979416E-001       9.39  <-- SCF
      4  -1.74365380E+003  8.84109228E+000   8.81075703E+000       9.91  <-- SCF
      5  -1.74367960E+003  8.84085289E+000   1.28995063E-002      10.56  <-- SCF
      6  -1.72709963E+003  7.76786168E+000  -8.28998509E+000      11.06  <-- SCF
      7  -1.72711648E+003  7.76733839E+000   8.42887097E-003      11.63  <-- SCF
      8  -1.72733748E+003  6.96414049E+000   1.10499790E-001      12.10  <-- SCF
      9  -1.72732708E+003  7.91074848E+000  -5.20271281E-003      12.58  <-- SCF
     10  -1.72732455E+003  7.42916870E+000  -1.26568648E-003      13.04  <-- SCF
     11  -1.72741291E+003  7.28918984E+000   4.41806940E-002      13.50  <-- SCF
     12  -1.72741418E+003  7.33367492E+000   6.35186081E-004      13.96  <-- SCF
     13  -1.72740155E+003  7.50215579E+000  -6.31173604E-003      14.42  <-- SCF
     14  -1.72738894E+003  7.34626936E+000  -6.30856030E-003      14.86  <-- SCF
     15  -1.72738668E+003  7.40182697E+000  -1.12831244E-003      15.38  <-- SCF
     16  -1.72738613E+003  7.38397252E+000  -2.75442932E-004      15.93  <-- SCF
     17  -1.72738635E+003  7.39271435E+000   1.08671111E-004      16.30  <-- SCF
     18  -1.72738634E+003  7.39190196E+000  -1.93359625E-006      16.62  <-- SCF
     19  -1.72738626E+003  7.38845336E+000  -4.07888348E-005      16.93  <-- SCF
     20  -1.72738631E+003  7.38888912E+000   2.31381488E-005      17.25  <-- SCF
     21  -1.72738628E+003  7.38905771E+000  -1.45807967E-005      17.57  <-- SCF
     22  -1.72738629E+003  7.38900739E+000   6.98659033E-006      17.89  <-- SCF
     23  -1.72738629E+003  7.38904635E+000   4.44347784E-007      18.20  <-- SCF
------------------------------------------------------------------------ <-- SCF
 
Integrated Spin Density     =     4.27207     hbar/2                        
Integrated |Spin Density|   =     4.44521     hbar/2                        
 
Final energy, E             =  -1727.348952461     eV
Final free energy (E-TS)    =  -1727.386293913     eV
(energies not corrected for finite basis set)
 
NB est. 0K energy (E-0.5TS)      =  -1727.367623187     eV
 

Writing analysis data to Fe-OQMD_22514-CollCode183262.castep_bin

Writing model to Fe-OQMD_22514-CollCode183262.check
 
 ************************** Forces **************************
 *                                                          *
 *               Cartesian components (eV/A)                *
 * -------------------------------------------------------- *
 *                         x            y            z      *
 *                                                          *
 * Fe              1      0.00006      0.00006      0.00006 *
 * Fe              2     -0.00006     -0.00006     -0.00006 *
 *                                                          *
 ************************************************************
 
 Pseudo atomic calculation performed for Fe 3d6 4s2
 
 Converged in 31 iterations to a total energy of -854.5743 eV
 
Charge spilling parameter for spin component 1 = 0.17%
Charge spilling parameter for spin component 2 = 0.51%
 
                   Orbital Populations                  
  ---------------------------------------------------------------
     Ion    Atom   Orbital              Up        Down      Spin
  ---------------------------------------------------------------
     Fe     1      Dzz                  0.949     0.327     0.622
     Fe     1      Dzy                  0.854     0.514     0.340
     Fe     1      Dzx                  0.854     0.514     0.340
     Fe     1      Dxx-yy               0.949     0.327     0.622
     Fe     1      Dxy                  0.854     0.514     0.340
     Fe     1      S                    0.529     0.550    -0.021
     Fe     1      Px                   0.026     0.062    -0.036
     Fe     1      Py                   0.026     0.062    -0.036
     Fe     1      Pz                   0.026     0.062    -0.036
     Fe     2      Dzz                  0.949     0.327     0.622
     Fe     2      Dzy                  0.854     0.514     0.340
     Fe     2      Dzx                  0.854     0.514     0.340
     Fe     2      Dxx-yy               0.949     0.327     0.622
     Fe     2      Dxy                  0.854     0.514     0.340
     Fe     2      S                    0.529     0.550    -0.021
     Fe     2      Px                   0.026     0.062    -0.036
     Fe     2      Py                   0.026     0.062    -0.036
     Fe     2      Pz                   0.026     0.062    -0.036
  ---------------------------------------------------------------
                           Total:      10.136     5.864     4.272
  ---------------------------------------------------------------
 
     Atomic Populations (Mulliken)
     -----------------------------
Species          Ion Spin      s      p      d      f     Total  Charge(e)   Spin(hbar/2)
=========================================================================================
  Fe              1   up:     0.53   0.08   4.46   0.00   5.07     0.00        2.14
                  1   dn:     0.55   0.19   2.20   0.00   2.93
  Fe              2   up:     0.53   0.08   4.46   0.00   5.07     0.00        2.14
                  2   dn:     0.55   0.19   2.20   0.00   2.93
=========================================================================================
 
                 Bond                   Population        Spin       Length (A)
================================================================================
              Fe 1 -- Fe 2                   1.25        -0.10          2.40092
================================================================================
 

Writing analysis data to Fe-OQMD_22514-CollCode183262.castep_bin

Writing model to Fe-OQMD_22514-CollCode183262.check
 
 A BibTeX formatted list of references used in this run has been written to 
 Fe-OQMD_22514-CollCode183262.bib
 
Initialisation time =      6.54 s
Calculation time    =     12.52 s
Finalisation time   =      0.54 s
Total time          =     19.59 s
Peak Memory Use     = 701224 kB
  
Overall parallel efficiency rating: Satisfactory (64%)                          
  
Data was distributed by:-
k-point (20-way); efficiency rating: Satisfactory (66%)                         
  
Parallel notes:
1) Calculation only took 19.1 s, so efficiency estimates may be inaccurate.     
