 +-------------------------------------------------+
 |                                                 |
 |      CCC   AA    SSS  TTTTT  EEEEE  PPPP        |
 |     C     A  A  S       T    E      P   P       |
 |     C     AAAA   SS     T    EEE    PPPP        |
 |     C     A  A     S    T    E      P           |
 |      CCC  A  A  SSS     T    EEEEE  P           |
 |                                                 |
 +-------------------------------------------------+
 |                                                 |
 | Welcome to Academic Release CASTEP version 16.1 |          
 | Ab Initio Total Energy Program                  |
 |                                                 |
 | Authors:                                        |
 | M. Segall, M. Probert, C. Pickard, P. Hasnip,   |
 | S. Clark, K. Refson, J. R. Yates, M. Payne      |
 |                                                 |
 | Contributors:                                   |
 | P. Lindan, P. Haynes, J. White, V. Milman,      |
 | N. Govind, M. Gibson, P. Tulip, V. Cocula,      |
 | B. Montanari, D. Quigley, M. Glover,            |
 | L. Bernasconi, A. Perlov, M. Plummer,           |
 | E. McNellis, J. Meyer, J. Gale, D. Jochym       |
 | J. Aarons, B. Walker, R. Gillen, D. Jones       |
 | T. Green, I. J. Bush, C. J. Armstrong,          |
 | E. J. Higgins, E. L. Brown, M. S. McFly         |
 |                                                 |
 | Copyright (c) 2000 - 2015                       |
 |                                                 |
 |     Distributed under the terms of an           |
 |     Agreement between the United Kingdom        |
 |     Car-Parrinello (UKCP) Consortium,           |
 |     Daresbury Laboratory and Accelrys, Inc.     |
 |                                                 |
 | Please cite                                     |
 |                                                 |
 |     "First principles methods using CASTEP"     |
 |                                                 |
 |         Zeitschrift fuer Kristallographie       |
 |           220(5-6) pp. 567-570 (2005)           |
 |                                                 |
 | S. J. Clark, M. D. Segall, C. J. Pickard,       |
 | P. J. Hasnip, M. J. Probert, K. Refson,         |
 | M. C. Payne                                     |
 |                                                 |
 |       in all publications arising from          |
 |              your use of CASTEP                 |
 |                                                 |
 +-------------------------------------------------+
 
 
 Compiled for linux_x86_64_ifort14 on Mon, 07 Dec 2015 10:43:21 +0000
 from code version 2756eb6097bf+  Tue, 01 Dec 2015 09:30:30 +0000
 Compiler: Intel Fortran 14.0.0.080; Optimisation: fast
 MATHLIBS: Intel MKL(11.1.0) (LAPACK version 3.4.1)
 FFT Lib : mkl
 Fundamental constants values: CODATA 2010
 
 Run started: Thu, 26 Oct 2017 21:05:52 +0100
 
 Pseudo atomic calculation performed for Na 2s2 2p6 3s1
 
 Converged in 13 iterations to a total energy of -1302.5052 eV
 
 
 Pseudo atomic calculation performed for P 3s2 3p3
 
 Converged in 12 iterations to a total energy of -174.2023 eV
 
 Calculation parallelised over 15 processes.
 Data is distributed by k-point(15-way)

 ************************************ Title ************************************
 

 ***************************** General Parameters ******************************
  
 output verbosity                               : normal  (1)
 write checkpoint data to                       : NaP-GA-ce7pmx-6x46.check
 type of calculation                            : geometry optimization
 stress calculation                             : on
 density difference calculation                 : off
 electron localisation func (ELF) calculation   : off
 Hirshfeld analysis                             : off
 unlimited duration calculation
 timing information                             : on
 memory usage estimate                          : on
 write final potential to formatted file        : off
 write final density to formatted file          : off
 write structure in CELL formatted file         : on
 write BibTeX reference list                    : off
 write OTFG pseudopotential files               : on
 checkpoint writing                             : off
  
 output         length unit                     : A
 output           mass unit                     : amu
 output           time unit                     : ps
 output         charge unit                     : e
 output           spin unit                     : hbar/2
 output         energy unit                     : eV
 output          force unit                     : eV/A
 output       velocity unit                     : A/ps
 output       pressure unit                     : GPa
 output     inv_length unit                     : 1/A
 output      frequency unit                     : cm-1
 output force constant unit                     : eV/A**2
 output         volume unit                     : A**3
 output   IR intensity unit                     : (D/A)**2/amu
 output         dipole unit                     : D
 output         efield unit                     : eV/A/e
 output        entropy unit                     : J/mol/K
  
 wavefunctions paging                           : none
 random number generator seed                   : randomised (210552187)
 data distribution                              : optimal for this architecture
 optimization strategy                          : maximize speed(+++)

 *********************** Exchange-Correlation Parameters ***********************
  
 using functional                               : Perdew Burke Ernzerhof
 relativistic treatment                         : Koelling-Harmon
 DFT+D: Semi-empirical dispersion correction    : off

 ************************* Pseudopotential Parameters **************************
  
 pseudopotential representation                 : reciprocal space
 <beta|phi> representation                      : reciprocal space
 spin-orbit coupling                            : off

 **************************** Basis Set Parameters *****************************
  
 plane wave basis set cut-off                   :   400.0000   eV
 size of standard grid                          :     1.7500
 size of   fine   gmax                          :    17.9311   1/A
 finite basis set correction                    : none

 **************************** Electronic Parameters ****************************
  
 number of  electrons                           :  74.00    
 net charge of system                           :  0.000    
 treating system as non-spin-polarized
 number of bands                                :         52

 ********************* Electronic Minimization Parameters **********************
  
 Method: Treating system as metallic with density mixing treatment of electrons,
         and number of  SD  steps               :          1
         and number of  CG  steps               :          4
  
 total energy / atom convergence tol.           : 0.1000E-04   eV
 eigen-energy convergence tolerance             : 0.1000E-05   eV
 max force / atom convergence tol.              : ignored
 convergence tolerance window                   :          3   cycles
 max. number of SCF cycles                      :        100
 number of fixed-spin iterations                :         10
 smearing scheme                                : Gaussian
 smearing width                                 : 0.2000       eV
 Fermi energy convergence tolerance             : 0.2721E-13   eV
 periodic dipole correction                     : NONE

 ************************** Density Mixing Parameters **************************
  
 density-mixing scheme                          : Broyden
 max. length of mixing history                  :         20
 charge density mixing amplitude                : 0.8000    
 cut-off energy for mixing                      :  400.0       eV

 *********************** Population Analysis Parameters ************************
  
 Population analysis with cutoff                :  3.000       A

 ********************** Geometry Optimization Parameters ***********************
  
 optimization method                            : LBFGS
 max. no. of LBFGS updates                      : unbounded
 variable cell method                           : fixed basis quality
 max. number of steps                           :          2
 estimated bulk modulus                         :  500.0       GPa
 estimated <frequency>                          :  1668.       cm-1
 geom line minimiser                            : on
 with line minimiser tolerance                  :     0.4000
 total energy convergence tolerance             : 0.2000E-04   eV/atom
        max ionic |force| tolerance             : 0.5000E-01   eV/A
 max ionic |displacement| tolerance             : 0.1000E-02   A
   max |stress component| tolerance             : 0.1000       GPa
 convergence tolerance window                   :          2   steps
 backup results every                           : 2147483647   steps

 *******************************************************************************
  
 
                           -------------------------------
                                      Unit Cell
                           -------------------------------
        Real Lattice(A)                      Reciprocal Lattice(1/A)
   4.9145110   0.0000000   0.0000000        1.2784965  -0.0206963  -0.0509111
   0.0836163   5.1653124   0.0000000        0.0000000   1.2164192   0.0961291
   0.3519540  -0.7216489   9.1317582        0.0000000   0.0000000   0.6880587
 
                       Lattice parameters(A)       Cell Angles
                    a =    4.914511          alpha =   94.478835
                    b =    5.165989          beta  =   87.799666
                    c =    9.166987          gamma =   89.072575
 
                       Current cell volume =  231.809543       A**3
 
                           -------------------------------
                                     Cell Contents
                           -------------------------------
                         Total number of ions in cell =   10
                      Total number of species in cell =    2
                        Max number of any one species =    6
 
            xxxxxxxxxxxxxxxxxxxxxxxxxxxxxxxxxxxxxxxxxxxxxxxxxxxxxxxxxxxx
            x  Element    Atom        Fractional coordinates of atoms  x
            x            Number           u          v          w      x
            x----------------------------------------------------------x
            x  Na           1         0.089343   0.664561   0.751366   x 
            x  Na           2         0.227230   0.744147   0.223765   x 
            x  Na           3         0.151885   0.613370   0.510832   x 
            x  Na           4         0.493341   0.059677   0.380343   x 
            x  Na           5         0.957450   0.415691   0.088210   x 
            x  Na           6         0.445403   0.854311   0.679177   x 
            x  P            1         0.379959   0.222313   0.732838   x 
            x  P            2         0.608430   0.522122   0.933314   x 
            x  P            3         0.809779   0.232444   0.576134   x 
            x  P            4         0.822257   0.420149   0.362219   x 
            xxxxxxxxxxxxxxxxxxxxxxxxxxxxxxxxxxxxxxxxxxxxxxxxxxxxxxxxxxxx
 
 
                         No user defined ionic velocities
 
                           -------------------------------
                                   Details of Species
                           -------------------------------
 
                               Mass of species in AMU
                                    Na   22.9897700
                                    P   30.9737600
 
                          Electric Quadrupole Moment (Barn)
                                    Na    0.1040000 Isotope 23
                                    P    1.0000000 No Isotope Defined
 
                          Files used for pseudopotentials:
                                    Na Na_00PBE.usp
                                    P P_00PBE.usp
 
                           -------------------------------
                              k-Points For BZ Sampling
                           -------------------------------
                       MP grid size for SCF calculation is  5  4  3
                            with an offset of   0.000  0.000  0.000
                       Number of kpoints used =            30
 
                           -------------------------------
                               Symmetry and Constraints
                           -------------------------------
 
                      Maximum deviation from symmetry = 0.587505E-16     ANG
 
                      Number of symmetry operations   =           1
                      Number of ionic constraints     =           3
                      Point group of crystal =     1: C1, 1, 1
                      Space group of crystal =     1: P1, P 1
 
             Set iprint > 1 for details on symmetry rotations/translations
 
                         Centre of mass is constrained
             Set iprint > 1 for details of linear ionic constraints
 
                         Number of cell constraints= 0
                         Cell constraints are:  1 2 3 4 5 6
 
                         External pressure/stress (GPa)
                          0.00000   0.00000   0.00000
                                    0.00000   0.00000
                                              0.00000
  
+---------------- MEMORY AND SCRATCH DISK ESTIMATES PER PROCESS --------------+
|                                                     Memory          Disk    |
| Baseline code, static data and system overhead      113.0 MB         0.0 MB |
| BLAS internal memory storage                          0.0 MB         0.0 MB |
| Model and support data                               61.6 MB         0.0 MB |
| Electronic energy minimisation requirements          25.3 MB         0.0 MB |
| Force calculation requirements                        5.6 MB         0.0 MB |
| Stress calculation requirements                       7.0 MB         0.0 MB |
|                                               ----------------------------- |
| Approx. total storage required per process          199.8 MB         0.0 MB |
|                                                                             |
| Requirements will fluctuate during execution and may exceed these estimates |
+-----------------------------------------------------------------------------+
------------------------------------------------------------------------ <-- SCF
SCF loop      Energy           Fermi           Energy gain       Timer   <-- SCF
                               energy          per atom          (sec)   <-- SCF
------------------------------------------------------------------------ <-- SCF
Initial  -7.89380458E+003  0.00000000E+000                         0.64  <-- SCF
      1  -8.33046872E+003  5.12144526E+000   4.36664142E+001       2.79  <-- SCF
      2  -8.53541871E+003  3.00588338E+000   2.04949990E+001       4.23  <-- SCF
      3  -8.53987244E+003  2.74969990E+000   4.45372989E-001       5.77  <-- SCF
      4  -8.53734962E+003  3.53342656E+000  -2.52281620E-001       7.63  <-- SCF
      5  -8.53727543E+003  3.48576056E+000  -7.41893604E-003       9.57  <-- SCF
      6  -8.53725001E+003  3.51433953E+000  -2.54207843E-003      11.40  <-- SCF
      7  -8.53724654E+003  3.52024906E+000  -3.46908378E-004      13.44  <-- SCF
      8  -8.53724731E+003  3.52869289E+000   7.67484307E-005      15.11  <-- SCF
      9  -8.53724743E+003  3.53141033E+000   1.21495316E-005      16.66  <-- SCF
     10  -8.53724753E+003  3.53415133E+000   9.43917700E-006      18.08  <-- SCF
     11  -8.53724755E+003  3.53530733E+000   2.31588434E-006      19.27  <-- SCF
     12  -8.53724755E+003  3.53588484E+000   3.52335760E-007      20.37  <-- SCF
------------------------------------------------------------------------ <-- SCF
 
Final energy, E             =  -8537.190779552     eV
Final free energy (E-TS)    =  -8537.247551883     eV
(energies not corrected for finite basis set)
 
NB est. 0K energy (E-0.5TS)      =  -8537.219165717     eV
 

WARNING - doing cell minimisation without finite basis correction:
        => now searching for a stationary and not minimum energy
 
+---------------- MEMORY AND SCRATCH DISK ESTIMATES PER PROCESS --------------+
|                                                     Memory          Disk    |
| Model and support data                               71.5 MB         0.0 MB |
| Electronic energy minimisation requirements          25.3 MB         0.0 MB |
| Geometry minimisation requirements                   32.5 MB         0.0 MB |
|                                               ----------------------------- |
| Approx. total storage required per process          129.2 MB         0.0 MB |
|                                                                             |
| Requirements will fluctuate during execution and may exceed these estimates |
+-----------------------------------------------------------------------------+
 
 
 *********************************** Forces ***********************************
 *                                                                            *
 *                        Cartesian components (eV/A)                         *
 * -------------------------------------------------------------------------- *
 *                   x                    y                    z              *
 *                                                                            *
 * Na        1     -2.15286             -0.47577              2.67928         *
 * Na        2      0.28565              0.05021             -0.82364         *
 * Na        3      1.04098              0.06170             -0.44059         *
 * Na        4     -0.44991             -0.17293             -0.47673         *
 * Na        5      1.03255             -1.38410             -0.19456         *
 * Na        6      3.84185             -7.34017             -1.59947         *
 * P         1      0.63231              9.53120              2.06579         *
 * P         2     -2.82245              0.24044             -1.91563         *
 * P         3      0.07401             -0.26646              0.99223         *
 * P         4     -1.48214             -0.24411             -0.28668         *
 *                                                                            *
 ******************************************************************************
 
 ***************** Stress Tensor *****************
 *                                               *
 *          Cartesian components (GPa)           *
 * --------------------------------------------- *
 *             x             y             z     *
 *                                               *
 *  x     -4.971592     -2.808212     -4.554146  *
 *  y     -2.808212    -12.760418     -3.970023  *
 *  z     -4.554146     -3.970023     -7.120494  *
 *                                               *
 *  Pressure:    8.2842                          *
 *                                               *
 *************************************************
 LBFGS: finished iteration     0 with enthalpy= -8.53724755E+003 eV
  
 +-----------+-----------------+-----------------+------------+-----+ <-- LBFGS
 | Parameter |      value      |    tolerance    |    units   | OK? | <-- LBFGS
 +-----------+-----------------+-----------------+------------+-----+ <-- LBFGS
 |  dE/ion   |   0.000000E+000 |   2.000000E-005 |         eV | No  | <-- LBFGS
 |  |F|max   |   9.772977E+000 |   5.000000E-002 |       eV/A | No  | <-- LBFGS
 |  |dR|max  |   0.000000E+000 |   1.000000E-003 |          A | No  | <-- LBFGS
 |   Smax    |   1.276042E+001 |   1.000000E-001 |        GPa | No  | <-- LBFGS
 +-----------+-----------------+-----------------+------------+-----+ <-- LBFGS
  

================================================================================
 Starting LBFGS iteration          1 ...
================================================================================
  
 +------------+-------------+-------------+-----------------+ <-- min LBFGS
 |    Step    |   lambda    |   F.delta'  |    enthalpy     | <-- min LBFGS
 +------------+-------------+-------------+-----------------+ <-- min LBFGS
 |  previous  |    0.000000 |    2.475723 |    -8537.247552 | <-- min LBFGS
 +------------+-------------+-------------+-----------------+ <-- min LBFGS
  

--------------------------------------------------------------------------------
 LBFGS: starting iteration         1 with trial guess (lambda=  1.000000)
--------------------------------------------------------------------------------
 
+---------------- MEMORY AND SCRATCH DISK ESTIMATES PER PROCESS --------------+
|                                                     Memory          Disk    |
| Model and support data                               71.7 MB         0.0 MB |
| Electronic energy minimisation requirements          25.6 MB         0.0 MB |
| Geometry minimisation requirements                   33.0 MB         0.0 MB |
|                                               ----------------------------- |
| Approx. total storage required per process          130.3 MB         0.0 MB |
|                                                                             |
| Requirements will fluctuate during execution and may exceed these estimates |
+-----------------------------------------------------------------------------+
 
 
                           -------------------------------
                                      Unit Cell
                           -------------------------------
        Real Lattice(A)              Reciprocal Lattice(1/A)
   4.9307997   0.0092007   0.0149209        1.2744803  -0.0227447  -0.0544618
   0.0935636   5.2094100   0.0139248       -0.0025301   1.2059204   0.0925060
   0.3794944  -0.7029601   9.1742652       -0.0020690  -0.0017934   0.6848189
 
                       Lattice parameters(A)       Cell Angles
                    a =    4.930831          alpha =   94.181669
                    b =    5.210269          beta  =   87.473519
                    c =    9.208980          gamma =   88.863684
 
                Current cell volume =  235.665222 A**3
 
                           -------------------------------
                                     Cell Contents
                           -------------------------------
 
            xxxxxxxxxxxxxxxxxxxxxxxxxxxxxxxxxxxxxxxxxxxxxxxxxxxxxxxxxxxx
            x  Element    Atom        Fractional coordinates of atoms  x
            x            Number           u          v          w      x
            x----------------------------------------------------------x
            x  Na           1         0.087632   0.664370   0.752461   x
            x  Na           2         0.227471   0.744136   0.223428   x
            x  Na           3         0.152688   0.613389   0.510652   x
            x  Na           4         0.493016   0.059525   0.380148   x
            x  Na           5         0.958257   0.414679   0.088130   x
            x  Na           6         0.448460   0.848914   0.678523   x
            x  P            1         0.380260   0.229320   0.733683   x
            x  P            2         0.606341   0.522186   0.932531   x
            x  P            3         0.809808   0.232308   0.576540   x
            x  P            4         0.821143   0.419956   0.362102   x
            xxxxxxxxxxxxxxxxxxxxxxxxxxxxxxxxxxxxxxxxxxxxxxxxxxxxxxxxxxxx
 
 
------------------------------------------------------------------------ <-- SCF
SCF loop      Energy           Fermi           Energy gain       Timer   <-- SCF
                               energy          per atom          (sec)   <-- SCF
------------------------------------------------------------------------ <-- SCF
Initial  -8.53606695E+003  0.00000000E+000                        24.08  <-- SCF
      1  -8.53912361E+003  3.39044471E+000   3.05665868E-001      25.55  <-- SCF
      2  -8.53916759E+003  3.39011259E+000   4.39788231E-003      27.49  <-- SCF
      3  -8.53828707E+003  3.45017200E+000  -8.80522244E-002      29.18  <-- SCF
      4  -8.53821774E+003  3.42090625E+000  -6.93249514E-003      30.85  <-- SCF
      5  -8.53821633E+003  3.42677711E+000  -1.41527354E-004      32.59  <-- SCF
      6  -8.53821515E+003  3.42157951E+000  -1.17478894E-004      34.20  <-- SCF
      7  -8.53821503E+003  3.42188123E+000  -1.24751781E-005      35.66  <-- SCF
      8  -8.53821503E+003  3.42185110E+000   1.75662080E-007      36.84  <-- SCF
      9  -8.53821503E+003  3.42185350E+000   4.06007762E-007      37.94  <-- SCF
------------------------------------------------------------------------ <-- SCF
 
Final energy, E             =  -8538.161269966     eV
Final free energy (E-TS)    =  -8538.215032441     eV
(energies not corrected for finite basis set)
 
NB est. 0K energy (E-0.5TS)      =  -8538.188151204     eV
 
 
 *********************************** Forces ***********************************
 *                                                                            *
 *                        Cartesian components (eV/A)                         *
 * -------------------------------------------------------------------------- *
 *                   x                    y                    z              *
 *                                                                            *
 * Na        1     -2.09819             -0.39480              2.58419         *
 * Na        2      0.27151              0.02720             -0.81528         *
 * Na        3      0.88327             -0.03143             -0.49767         *
 * Na        4     -0.36676             -0.10593             -0.40615         *
 * Na        5      0.90778             -1.29143             -0.26692         *
 * Na        6      3.45667             -5.51948             -1.08804         *
 * P         1      0.97620              7.56937              1.53576         *
 * P         2     -2.65341              0.15648             -1.78421         *
 * P         3     -0.04484             -0.20047              0.84562         *
 * P         4     -1.33223             -0.20951             -0.10732         *
 *                                                                            *
 ******************************************************************************
 
 ***************** Stress Tensor *****************
 *                                               *
 *          Cartesian components (GPa)           *
 * --------------------------------------------- *
 *             x             y             z     *
 *                                               *
 *  x     -4.172149     -2.792727     -4.206591  *
 *  y     -2.792727    -10.075470     -3.295780  *
 *  z     -4.206591     -3.295780     -6.139485  *
 *                                               *
 *  Pressure:    6.7957                          *
 *                                               *
 *************************************************
  
 +------------+-------------+-------------+-----------------+ <-- min LBFGS
 |    Step    |   lambda    |   F.delta'  |    enthalpy     | <-- min LBFGS
 +------------+-------------+-------------+-----------------+ <-- min LBFGS
 |  previous  |    0.000000 |    2.475723 |    -8537.247552 | <-- min LBFGS
 | trial step |    1.000000 |    2.043075 |    -8538.215032 | <-- min LBFGS
 +------------+-------------+-------------+-----------------+ <-- min LBFGS
  

--------------------------------------------------------------------------------
 LBFGS: improving iteration         1 with line minimization (lambda=  4.900976)
--------------------------------------------------------------------------------
 
+---------------- MEMORY AND SCRATCH DISK ESTIMATES PER PROCESS --------------+
|                                                     Memory          Disk    |
| Model and support data                               74.8 MB         0.0 MB |
| Electronic energy minimisation requirements          27.2 MB         0.0 MB |
| Geometry minimisation requirements                   35.1 MB         0.0 MB |
|                                               ----------------------------- |
| Approx. total storage required per process          137.1 MB         0.0 MB |
|                                                                             |
| Requirements will fluctuate during execution and may exceed these estimates |
+-----------------------------------------------------------------------------+
 
 
                           -------------------------------
                                      Unit Cell
                           -------------------------------
        Real Lattice(A)              Reciprocal Lattice(1/A)
   4.9943412   0.0450922   0.0731271        1.2593238  -0.0301174  -0.0676843
   0.1323679   5.3814335   0.0682451       -0.0116965   1.1668490   0.0793221
   0.4869288  -0.6300558   9.3400840       -0.0097743  -0.0082900   0.6726622
 
                       Lattice parameters(A)       Cell Angles
                    a =    4.995080          alpha =   93.054138
                    b =    5.383494          beta  =   86.220478
                    c =    9.373966          gamma =   88.063404
 
                Current cell volume =  250.993556 A**3
 
                           -------------------------------
                                     Cell Contents
                           -------------------------------
 
            xxxxxxxxxxxxxxxxxxxxxxxxxxxxxxxxxxxxxxxxxxxxxxxxxxxxxxxxxxxx
            x  Element    Atom        Fractional coordinates of atoms  x
            x            Number           u          v          w      x
            x----------------------------------------------------------x
            x  Na           1         0.080958   0.663626   0.756735   x
            x  Na           2         0.228413   0.744094   0.222115   x
            x  Na           3         0.155823   0.613465   0.509949   x
            x  Na           4         0.491747   0.058931   0.379388   x
            x  Na           5         0.961407   0.410733   0.087820   x
            x  Na           6         0.460387   0.827860   0.675972   x
            x  P            1         0.381433   0.256657   0.736978   x
            x  P            2         0.598190   0.522437   0.929475   x
            x  P            3         0.809924   0.231778   0.578122   x
            x  P            4         0.816796   0.419204   0.361645   x
            xxxxxxxxxxxxxxxxxxxxxxxxxxxxxxxxxxxxxxxxxxxxxxxxxxxxxxxxxxxx
 
 
------------------------------------------------------------------------ <-- SCF
SCF loop      Energy           Fermi           Energy gain       Timer   <-- SCF
                               energy          per atom          (sec)   <-- SCF
------------------------------------------------------------------------ <-- SCF
Initial  -8.50444666E+003  0.00000000E+000                        41.80  <-- SCF
      1  -8.55801963E+003  2.85735585E+000   5.35729689E+000      43.47  <-- SCF
      2  -8.55900396E+003  2.83849956E+000   9.84335591E-002      45.30  <-- SCF
      3  -8.54150009E+003  3.06939026E+000  -1.75038704E+000      47.13  <-- SCF
      4  -8.54050475E+003  3.03101287E+000  -9.95341769E-002      49.00  <-- SCF
      5  -8.54058631E+003  3.02533181E+000   8.15644073E-003      50.90  <-- SCF
      6  -8.54058104E+003  3.00373278E+000  -5.27614338E-004      52.98  <-- SCF
      7  -8.54057860E+003  3.00598997E+000  -2.43982576E-004      54.81  <-- SCF
      8  -8.54057870E+003  3.00641369E+000   1.05580560E-005      56.57  <-- SCF
      9  -8.54057877E+003  3.00619537E+000   6.84479237E-006      58.07  <-- SCF
     10  -8.54057878E+003  3.00628697E+000   9.96816339E-007      59.30  <-- SCF
     11  -8.54057878E+003  3.00642869E+000   3.40064780E-007      60.50  <-- SCF
------------------------------------------------------------------------ <-- SCF
 
Final energy, E             =  -8540.532196294     eV
Final free energy (E-TS)    =  -8540.578784438     eV
(energies not corrected for finite basis set)
 
NB est. 0K energy (E-0.5TS)      =  -8540.555490366     eV
 
 
 *********************************** Forces ***********************************
 *                                                                            *
 *                        Cartesian components (eV/A)                         *
 * -------------------------------------------------------------------------- *
 *                   x                    y                    z              *
 *                                                                            *
 * Na        1     -1.92952             -0.08522              2.22795         *
 * Na        2      0.21678             -0.08990             -0.75131         *
 * Na        3      0.36501             -0.34710             -0.67659         *
 * Na        4     -0.08846              0.11276             -0.17067         *
 * Na        5      0.49342             -0.97114             -0.46133         *
 * Na        6      2.47007             -1.24808              0.05654         *
 * P         1      1.86152              2.78631              0.35176         *
 * P         2     -2.11445             -0.08258             -1.38625         *
 * P         3     -0.41598              0.05590              0.35677         *
 * P         4     -0.85839             -0.13095              0.45314         *
 *                                                                            *
 ******************************************************************************
 
 ***************** Stress Tensor *****************
 *                                               *
 *          Cartesian components (GPa)           *
 * --------------------------------------------- *
 *             x             y             z     *
 *                                               *
 *  x     -1.655281     -2.448065     -3.005215  *
 *  y     -2.448065     -2.927485     -1.562136  *
 *  z     -3.005215     -1.562136     -2.973620  *
 *                                               *
 *  Pressure:    2.5188                          *
 *                                               *
 *************************************************
  
 +------------+-------------+-------------+-----------------+ <-- min LBFGS
 |    Step    |   lambda    |   F.delta'  |    enthalpy     | <-- min LBFGS
 +------------+-------------+-------------+-----------------+ <-- min LBFGS
 |  previous  |    0.000000 |    2.475723 |    -8537.247552 | <-- min LBFGS
 | trial step |    1.000000 |    2.043075 |    -8538.215032 | <-- min LBFGS
 |  line step |    4.900976 |    0.914350 |    -8540.578784 | <-- min LBFGS
 +------------+-------------+-------------+-----------------+ <-- min LBFGS
  
 LBFGS: finished iteration     1 with enthalpy= -8.54057878E+003 eV
  
 +-----------+-----------------+-----------------+------------+-----+ <-- LBFGS
 | Parameter |      value      |    tolerance    |    units   | OK? | <-- LBFGS
 +-----------+-----------------+-----------------+------------+-----+ <-- LBFGS
 |  dE/ion   |   3.331233E-001 |   2.000000E-005 |         eV | No  | <-- LBFGS
 |  |F|max   |   3.369354E+000 |   5.000000E-002 |       eV/A | No  | <-- LBFGS
 |  |dR|max  |   1.873733E-001 |   1.000000E-003 |          A | No  | <-- LBFGS
 |   Smax    |   3.005215E+000 |   1.000000E-001 |        GPa | No  | <-- LBFGS
 +-----------+-----------------+-----------------+------------+-----+ <-- LBFGS
  

================================================================================
 Starting LBFGS iteration          2 ...
================================================================================
  
 +------------+-------------+-------------+-----------------+ <-- min LBFGS
 |    Step    |   lambda    |   F.delta'  |    enthalpy     | <-- min LBFGS
 +------------+-------------+-------------+-----------------+ <-- min LBFGS
 |  previous  |    0.000000 |    0.984532 |    -8540.578784 | <-- min LBFGS
 +------------+-------------+-------------+-----------------+ <-- min LBFGS
  

--------------------------------------------------------------------------------
 LBFGS: starting iteration         2 with trial guess (lambda=  1.000000)
--------------------------------------------------------------------------------
 
+---------------- MEMORY AND SCRATCH DISK ESTIMATES PER PROCESS --------------+
|                                                     Memory          Disk    |
| Model and support data                               79.5 MB         0.0 MB |
| Electronic energy minimisation requirements          28.7 MB         0.0 MB |
| Geometry minimisation requirements                   36.9 MB         0.0 MB |
|                                               ----------------------------- |
| Approx. total storage required per process          145.1 MB         0.0 MB |
|                                                                             |
| Requirements will fluctuate during execution and may exceed these estimates |
+-----------------------------------------------------------------------------+
 
 
                           -------------------------------
                                      Unit Cell
                           -------------------------------
        Real Lattice(A)              Reciprocal Lattice(1/A)
   5.0427499   0.0805753   0.1256801        1.2485465  -0.0370718  -0.0790507
   0.1704854   5.5052513   0.1109360       -0.0199671   1.1405163   0.0699542
   0.5828351  -0.5708365   9.4731386       -0.0163306  -0.0128643   0.6634929
 
                       Lattice parameters(A)       Cell Angles
                    a =    5.044959          alpha =   92.179792
                    b =    5.509008          beta  =   85.116351
                    c =    9.508202          gamma =   87.283430
 
                Current cell volume =  262.768457 A**3
 
                           -------------------------------
                                     Cell Contents
                           -------------------------------
 
            xxxxxxxxxxxxxxxxxxxxxxxxxxxxxxxxxxxxxxxxxxxxxxxxxxxxxxxxxxxx
            x  Element    Atom        Fractional coordinates of atoms  x
            x            Number           u          v          w      x
            x----------------------------------------------------------x
            x  Na           1         0.074370   0.663276   0.760857   x
            x  Na           2         0.229289   0.743882   0.220799   x
            x  Na           3         0.158247   0.613029   0.509063   x
            x  Na           4         0.490852   0.058676   0.378801   x
            x  Na           5         0.963997   0.407069   0.087317   x
            x  Na           6         0.470853   0.813282   0.674433   x
            x  P            1         0.384402   0.277083   0.739306   x
            x  P            2         0.590569   0.522321   0.926630   x
            x  P            3         0.809475   0.231548   0.579342   x
            x  P            4         0.813023   0.418617   0.361651   x
            xxxxxxxxxxxxxxxxxxxxxxxxxxxxxxxxxxxxxxxxxxxxxxxxxxxxxxxxxxxx
 
 
------------------------------------------------------------------------ <-- SCF
SCF loop      Energy           Fermi           Energy gain       Timer   <-- SCF
                               energy          per atom          (sec)   <-- SCF
------------------------------------------------------------------------ <-- SCF
Initial  -8.52081902E+003  0.00000000E+000                        64.77  <-- SCF
      1  -8.55106305E+003  2.58360099E+000   3.02440238E+000      66.70  <-- SCF
      2  -8.55146041E+003  2.57709402E+000   3.97363451E-002      68.65  <-- SCF
      3  -8.54205196E+003  2.80344660E+000  -9.40844828E-001      70.59  <-- SCF
      4  -8.54153328E+003  2.75224762E+000  -5.18686023E-002      72.60  <-- SCF
      5  -8.54157526E+003  2.74245456E+000   4.19869524E-003      74.68  <-- SCF
      6  -8.54157232E+003  2.72732655E+000  -2.94336866E-004      76.88  <-- SCF
      7  -8.54157106E+003  2.72852417E+000  -1.25610828E-004      78.88  <-- SCF
      8  -8.54157116E+003  2.72779004E+000   9.24957340E-006      80.68  <-- SCF
      9  -8.54157120E+003  2.72749709E+000   4.39921758E-006      82.22  <-- SCF
     10  -8.54157120E+003  2.72730960E+000   5.78747960E-007      83.53  <-- SCF
     11  -8.54157121E+003  2.72731438E+000   3.04345265E-007      84.82  <-- SCF
------------------------------------------------------------------------ <-- SCF
 
Final energy, E             =  -8541.525859573     eV
Final free energy (E-TS)    =  -8541.571207989     eV
(energies not corrected for finite basis set)
 
NB est. 0K energy (E-0.5TS)      =  -8541.548533781     eV
 
 
 *********************************** Forces ***********************************
 *                                                                            *
 *                        Cartesian components (eV/A)                         *
 * -------------------------------------------------------------------------- *
 *                   x                    y                    z              *
 *                                                                            *
 * Na        1     -1.80626              0.12253              1.96396         *
 * Na        2      0.17932             -0.15769             -0.69662         *
 * Na        3      0.10360             -0.51183             -0.72316         *
 * Na        4      0.05833              0.22520             -0.03618         *
 * Na        5      0.24343             -0.77389             -0.54563         *
 * Na        6      2.01714             -0.01431              0.31896         *
 * P         1      2.20556              1.17127              0.05103         *
 * P         2     -1.78395             -0.20830             -1.13999         *
 * P         3     -0.62497              0.23344              0.09376         *
 * P         4     -0.59219             -0.08642              0.71388         *
 *                                                                            *
 ******************************************************************************
 
 ***************** Stress Tensor *****************
 *                                               *
 *          Cartesian components (GPa)           *
 * --------------------------------------------- *
 *             x             y             z     *
 *                                               *
 *  x     -0.335222     -2.007587     -2.249314  *
 *  y     -2.007587     -0.327632     -0.936002  *
 *  z     -2.249314     -0.936002     -1.164983  *
 *                                               *
 *  Pressure:    0.6093                          *
 *                                               *
 *************************************************
  
 +------------+-------------+-------------+-----------------+ <-- min LBFGS
 |    Step    |   lambda    |   F.delta'  |    enthalpy     | <-- min LBFGS
 +------------+-------------+-------------+-----------------+ <-- min LBFGS
 |  previous  |    0.000000 |    0.984532 |    -8540.578784 | <-- min LBFGS
 | trial step |    1.000000 |    0.567441 |    -8541.571208 | <-- min LBFGS
 +------------+-------------+-------------+-----------------+ <-- min LBFGS
  

--------------------------------------------------------------------------------
 LBFGS: improving iteration         2 with line minimization (lambda=  1.517309)
--------------------------------------------------------------------------------
 
+---------------- MEMORY AND SCRATCH DISK ESTIMATES PER PROCESS --------------+
|                                                     Memory          Disk    |
| Model and support data                               80.3 MB         0.0 MB |
| Electronic energy minimisation requirements          29.3 MB         0.0 MB |
| Geometry minimisation requirements                   37.7 MB         0.0 MB |
|                                               ----------------------------- |
| Approx. total storage required per process          147.2 MB         0.0 MB |
|                                                                             |
| Requirements will fluctuate during execution and may exceed these estimates |
+-----------------------------------------------------------------------------+
 
 
                           -------------------------------
                                      Unit Cell
                           -------------------------------
        Real Lattice(A)              Reciprocal Lattice(1/A)
   5.0677921   0.0989310   0.1528663        1.2431708  -0.0404343  -0.0846873
   0.1902039   5.5693034   0.1330204       -0.0239826   1.1274381   0.0654175
   0.6324483  -0.5402019   9.5419689       -0.0195818  -0.0150693   0.6589237
 
                       Lattice parameters(A)       Cell Angles
                    a =    5.071062          alpha =   91.737684
                    b =    5.574138          beta  =   84.553378
                    c =    9.578151          gamma =   86.886623
 
                Current cell volume =  268.951999 A**3
 
                           -------------------------------
                                     Cell Contents
                           -------------------------------
 
            xxxxxxxxxxxxxxxxxxxxxxxxxxxxxxxxxxxxxxxxxxxxxxxxxxxxxxxxxxxx
            x  Element    Atom        Fractional coordinates of atoms  x
            x            Number           u          v          w      x
            x----------------------------------------------------------x
            x  Na           1         0.070961   0.663096   0.762989   x
            x  Na           2         0.229742   0.743773   0.220118   x
            x  Na           3         0.159501   0.612804   0.508604   x
            x  Na           4         0.490389   0.058544   0.378497   x
            x  Na           5         0.965337   0.405174   0.087057   x
            x  Na           6         0.476267   0.805741   0.673637   x
            x  P            1         0.385938   0.287650   0.740510   x
            x  P            2         0.586626   0.522261   0.925159   x
            x  P            3         0.809242   0.231428   0.579973   x
            x  P            4         0.811072   0.418314   0.361654   x
            xxxxxxxxxxxxxxxxxxxxxxxxxxxxxxxxxxxxxxxxxxxxxxxxxxxxxxxxxxxx
 
 
------------------------------------------------------------------------ <-- SCF
SCF loop      Energy           Fermi           Energy gain       Timer   <-- SCF
                               energy          per atom          (sec)   <-- SCF
------------------------------------------------------------------------ <-- SCF
Initial  -8.53661179E+003  0.00000000E+000                        89.42  <-- SCF
      1  -8.54415381E+003  2.51414986E+000   7.54201445E-001      91.27  <-- SCF
      2  -8.54426460E+003  2.51306088E+000   1.10792846E-002      93.70  <-- SCF
      3  -8.54202026E+003  2.64373657E+000  -2.24433918E-001      95.69  <-- SCF
      4  -8.54190171E+003  2.59837927E+000  -1.18547302E-002      97.72  <-- SCF
      5  -8.54190769E+003  2.59883460E+000   5.97663697E-004      99.84  <-- SCF
      6  -8.54190664E+003  2.59198108E+000  -1.04978127E-004     101.96  <-- SCF
      7  -8.54190629E+003  2.59268938E+000  -3.54334755E-005     103.80  <-- SCF
      8  -8.54190631E+003  2.59223194E+000   2.51967058E-006     105.48  <-- SCF
      9  -8.54190632E+003  2.59217256E+000   1.40556779E-006     106.84  <-- SCF
------------------------------------------------------------------------ <-- SCF
 
Final energy, E             =  -8541.860114244     eV
Final free energy (E-TS)    =  -8541.906324520     eV
(energies not corrected for finite basis set)
 
NB est. 0K energy (E-0.5TS)      =  -8541.883219382     eV
 
 
 *********************************** Forces ***********************************
 *                                                                            *
 *                        Cartesian components (eV/A)                         *
 * -------------------------------------------------------------------------- *
 *                   x                    y                    z              *
 *                                                                            *
 * Na        1     -1.76964              0.21950              1.85703         *
 * Na        2      0.16383             -0.18646             -0.67655         *
 * Na        3      0.00733             -0.57283             -0.73363         *
 * Na        4      0.11304              0.27624              0.01530         *
 * Na        5      0.15430             -0.69384             -0.57061         *
 * Na        6      1.85731              0.30369              0.35396         *
 * P         1      2.32322              0.63695             -0.00907         *
 * P         2     -1.64753             -0.24407             -1.04095         *
 * P         3     -0.71682              0.33171             -0.01449         *
 * P         4     -0.48502             -0.07088              0.81901         *
 *                                                                            *
 ******************************************************************************
 
 ***************** Stress Tensor *****************
 *                                               *
 *          Cartesian components (GPa)           *
 * --------------------------------------------- *
 *             x             y             z     *
 *                                               *
 *  x      0.148041     -1.778097     -1.930824  *
 *  y     -1.778097      0.451355     -0.736823  *
 *  z     -1.930824     -0.736823     -0.444617  *
 *                                               *
 *  Pressure:   -0.0516                          *
 *                                               *
 *************************************************
  
 +------------+-------------+-------------+-----------------+ <-- min LBFGS
 |    Step    |   lambda    |   F.delta'  |    enthalpy     | <-- min LBFGS
 +------------+-------------+-------------+-----------------+ <-- min LBFGS
 |  previous  |    0.000000 |    0.984532 |    -8540.578784 | <-- min LBFGS
 | trial step |    1.000000 |    0.567441 |    -8541.571208 | <-- min LBFGS
 |  line step |    1.517309 |    0.427237 |    -8541.906325 | <-- min LBFGS
 +------------+-------------+-------------+-----------------+ <-- min LBFGS
  
 LBFGS: finished iteration     2 with enthalpy= -8.54190632E+003 eV
  
 +-----------+-----------------+-----------------+------------+-----+ <-- LBFGS
 | Parameter |      value      |    tolerance    |    units   | OK? | <-- LBFGS
 +-----------+-----------------+-----------------+------------+-----+ <-- LBFGS
 |  dE/ion   |   1.327540E-001 |   2.000000E-005 |         eV | No  | <-- LBFGS
 |  |F|max   |   2.574564E+000 |   5.000000E-002 |       eV/A | No  | <-- LBFGS
 |  |dR|max  |   1.781415E-001 |   1.000000E-003 |          A | No  | <-- LBFGS
 |   Smax    |   1.930824E+000 |   1.000000E-001 |        GPa | No  | <-- LBFGS
 +-----------+-----------------+-----------------+------------+-----+ <-- LBFGS
  
 LBFGS: WARNING - Geometry optimization failed to converge after          2 steps

================================================================================
 LBFGS: Final Configuration:
================================================================================
 
                           -------------------------------
                                      Unit Cell
                           -------------------------------
        Real Lattice(A)              Reciprocal Lattice(1/A)
   5.0677921   0.0989310   0.1528663        1.2431708  -0.0404343  -0.0846873
   0.1902039   5.5693034   0.1330204       -0.0239826   1.1274381   0.0654175
   0.6324483  -0.5402019   9.5419689       -0.0195818  -0.0150693   0.6589237
 
                       Lattice parameters(A)       Cell Angles
                    a =    5.071062          alpha =   91.737684
                    b =    5.574138          beta  =   84.553378
                    c =    9.578151          gamma =   86.886623
 
                Current cell volume =  268.951999 A**3
 
                           -------------------------------
                                     Cell Contents
                           -------------------------------
 
            xxxxxxxxxxxxxxxxxxxxxxxxxxxxxxxxxxxxxxxxxxxxxxxxxxxxxxxxxxxx
            x  Element    Atom        Fractional coordinates of atoms  x
            x            Number           u          v          w      x
            x----------------------------------------------------------x
            x  Na           1         0.070961   0.663096   0.762989   x
            x  Na           2         0.229742   0.743773   0.220118   x
            x  Na           3         0.159501   0.612804   0.508604   x
            x  Na           4         0.490389   0.058544   0.378497   x
            x  Na           5         0.965337   0.405174   0.087057   x
            x  Na           6         0.476267   0.805741   0.673637   x
            x  P            1         0.385938   0.287650   0.740510   x
            x  P            2         0.586626   0.522261   0.925159   x
            x  P            3         0.809242   0.231428   0.579973   x
            x  P            4         0.811072   0.418314   0.361654   x
            xxxxxxxxxxxxxxxxxxxxxxxxxxxxxxxxxxxxxxxxxxxxxxxxxxxxxxxxxxxx
 
 
 LBFGS: Final Enthalpy     = -8.54190632E+003 eV
 LBFGS: Final <frequency>  =    1169.38076 cm-1
 LBFGS: Final bulk modulus =     118.15601 GPa
  
  **********************************************************
  *** There were at least     2 warnings during this run ***
  *** => please check the whole of this file carefully!  ***
  **********************************************************
 
 ***************************** Symmetrised Forces *****************************
 *                                                                            *
 *                        Cartesian components (eV/A)                         *
 * -------------------------------------------------------------------------- *
 *                   x                    y                    z              *
 *                                                                            *
 * Na        1     -1.76964              0.21950              1.85703         *
 * Na        2      0.16383             -0.18646             -0.67655         *
 * Na        3      0.00733             -0.57283             -0.73363         *
 * Na        4      0.11304              0.27624              0.01530         *
 * Na        5      0.15430             -0.69384             -0.57061         *
 * Na        6      1.85731              0.30369              0.35396         *
 * P         1      2.32322              0.63695             -0.00907         *
 * P         2     -1.64753             -0.24407             -1.04095         *
 * P         3     -0.71682              0.33171             -0.01449         *
 * P         4     -0.48502             -0.07088              0.81901         *
 *                                                                            *
 ******************************************************************************
 
 *********** Symmetrised Stress Tensor ***********
 *                                               *
 *          Cartesian components (GPa)           *
 * --------------------------------------------- *
 *             x             y             z     *
 *                                               *
 *  x      0.148041     -1.778097     -1.930824  *
 *  y     -1.778097      0.451355     -0.736823  *
 *  z     -1.930824     -0.736823     -0.444617  *
 *                                               *
 *  Pressure:   -0.0516                          *
 *                                               *
 *************************************************
 
 Pseudo atomic calculation performed for Na 2s2 2p6 3s1
 
 Converged in 13 iterations to a total energy of -1302.5052 eV
 
 
 Pseudo atomic calculation performed for P 3s2 3p3
 
 Converged in 12 iterations to a total energy of -174.2023 eV
 
Charge spilling parameter for spin component 1 = 0.22%
 
     Atomic Populations (Mulliken)
     -----------------------------
Species   Ion     s      p      d      f     Total  Charge (e)
==============================================================
  Na       1     2.41   6.29   0.00   0.00   8.69     0.31
  Na       2     2.46   6.30   0.00   0.00   8.76     0.24
  Na       3     2.32   6.44   0.00   0.00   8.76     0.24
  Na       4     2.28   6.33   0.00   0.00   8.60     0.40
  Na       5     2.30   6.26   0.00   0.00   8.56     0.44
  Na       6     2.39   6.25   0.00   0.00   8.63     0.37
  P        1     1.82   3.52   0.00   0.00   5.35    -0.35
  P        2     1.82   3.82   0.00   0.00   5.64    -0.64
  P        3     1.82   3.50   0.00   0.00   5.32    -0.32
  P        4     1.79   3.90   0.00   0.00   5.68    -0.68
==============================================================
 
            Bond              Population      Length (A)
============================================================
         Na 1 -- Na 6             -1.08        2.33964
          P 3 -- P 4               0.42        2.36377
         Na 1 -- Na 3             -1.18        2.44010
          P 1 -- P 2               0.38        2.49396
          P 1 -- P 3               0.28        2.51825
         Na 1 -- P 1               0.21        2.55376
         Na 3 -- Na 6             -0.83        2.60809
         Na 3 -- P 4               0.60        2.62031
         Na 5 -- P 2               0.55        2.64752
         Na 4 -- P 4               0.27        2.64882
         Na 5 -- P 4               0.23        2.66954
         Na 2 -- Na 5             -0.10        2.72722
         Na 6 -- P 1               0.38        2.74631
         Na 2 -- Na 4              0.06        2.75644
         Na 4 -- P 3               0.14        2.81352
         Na 2 -- Na 3             -0.32        2.87379
         Na 3 -- P 3               0.31        2.89984
         Na 1 -- P 2               0.51        2.93607
============================================================
 
Initialisation time =      0.39 s
Calculation time    =    111.79 s
Finalisation time   =      0.05 s
Total time          =    112.24 s
Peak Memory Use     = 273780 kB
  
Overall parallel efficiency rating: Excellent (90%)                             
  
Data was distributed by:-
k-point (15-way); efficiency rating: Excellent (90%)                            
  
Parallel notes:
1) Calculation only took 112.2 s, so efficiency estimates may be inaccurate.    
 +-------------------------------------------------+
 |                                                 |
 |      CCC   AA    SSS  TTTTT  EEEEE  PPPP        |
 |     C     A  A  S       T    E      P   P       |
 |     C     AAAA   SS     T    EEE    PPPP        |
 |     C     A  A     S    T    E      P           |
 |      CCC  A  A  SSS     T    EEEEE  P           |
 |                                                 |
 +-------------------------------------------------+
 |                                                 |
 | Welcome to Academic Release CASTEP version 16.1 |          
 | Ab Initio Total Energy Program                  |
 |                                                 |
 | Authors:                                        |
 | M. Segall, M. Probert, C. Pickard, P. Hasnip,   |
 | S. Clark, K. Refson, J. R. Yates, M. Payne      |
 |                                                 |
 | Contributors:                                   |
 | P. Lindan, P. Haynes, J. White, V. Milman,      |
 | N. Govind, M. Gibson, P. Tulip, V. Cocula,      |
 | B. Montanari, D. Quigley, M. Glover,            |
 | L. Bernasconi, A. Perlov, M. Plummer,           |
 | E. McNellis, J. Meyer, J. Gale, D. Jochym       |
 | J. Aarons, B. Walker, R. Gillen, D. Jones       |
 | T. Green, I. J. Bush, C. J. Armstrong,          |
 | E. J. Higgins, E. L. Brown, M. S. McFly         |
 |                                                 |
 | Copyright (c) 2000 - 2015                       |
 |                                                 |
 |     Distributed under the terms of an           |
 |     Agreement between the United Kingdom        |
 |     Car-Parrinello (UKCP) Consortium,           |
 |     Daresbury Laboratory and Accelrys, Inc.     |
 |                                                 |
 | Please cite                                     |
 |                                                 |
 |     "First principles methods using CASTEP"     |
 |                                                 |
 |         Zeitschrift fuer Kristallographie       |
 |           220(5-6) pp. 567-570 (2005)           |
 |                                                 |
 | S. J. Clark, M. D. Segall, C. J. Pickard,       |
 | P. J. Hasnip, M. J. Probert, K. Refson,         |
 | M. C. Payne                                     |
 |                                                 |
 |       in all publications arising from          |
 |              your use of CASTEP                 |
 |                                                 |
 +-------------------------------------------------+
 
 
 Compiled for linux_x86_64_ifort14 on Mon, 07 Dec 2015 10:43:21 +0000
 from code version 2756eb6097bf+  Tue, 01 Dec 2015 09:30:30 +0000
 Compiler: Intel Fortran 14.0.0.080; Optimisation: fast
 MATHLIBS: Intel MKL(11.1.0) (LAPACK version 3.4.1)
 FFT Lib : mkl
 Fundamental constants values: CODATA 2010
 
 Run started: Thu, 26 Oct 2017 21:07:46 +0100
 
 Pseudo atomic calculation performed for Na 2s2 2p6 3s1
 
 Converged in 13 iterations to a total energy of -1302.5052 eV
 
 
 Pseudo atomic calculation performed for P 3s2 3p3
 
 Converged in 12 iterations to a total energy of -174.2023 eV
 
 Calculation parallelised over 12 processes.
 Data is distributed by k-point(12-way)

 ************************************ Title ************************************
 

 ***************************** General Parameters ******************************
  
 output verbosity                               : normal  (1)
 write checkpoint data to                       : NaP-GA-ce7pmx-6x46.check
 type of calculation                            : geometry optimization
 stress calculation                             : on
 density difference calculation                 : off
 electron localisation func (ELF) calculation   : off
 Hirshfeld analysis                             : off
 unlimited duration calculation
 timing information                             : on
 memory usage estimate                          : on
 write final potential to formatted file        : off
 write final density to formatted file          : off
 write structure in CELL formatted file         : on
 write BibTeX reference list                    : off
 write OTFG pseudopotential files               : on
 checkpoint writing                             : off
  
 output         length unit                     : A
 output           mass unit                     : amu
 output           time unit                     : ps
 output         charge unit                     : e
 output           spin unit                     : hbar/2
 output         energy unit                     : eV
 output          force unit                     : eV/A
 output       velocity unit                     : A/ps
 output       pressure unit                     : GPa
 output     inv_length unit                     : 1/A
 output      frequency unit                     : cm-1
 output force constant unit                     : eV/A**2
 output         volume unit                     : A**3
 output   IR intensity unit                     : (D/A)**2/amu
 output         dipole unit                     : D
 output         efield unit                     : eV/A/e
 output        entropy unit                     : J/mol/K
  
 wavefunctions paging                           : none
 random number generator seed                   : randomised (210746454)
 data distribution                              : optimal for this architecture
 optimization strategy                          : maximize speed(+++)

 *********************** Exchange-Correlation Parameters ***********************
  
 using functional                               : Perdew Burke Ernzerhof
 relativistic treatment                         : Koelling-Harmon
 DFT+D: Semi-empirical dispersion correction    : off

 ************************* Pseudopotential Parameters **************************
  
 pseudopotential representation                 : reciprocal space
 <beta|phi> representation                      : reciprocal space
 spin-orbit coupling                            : off

 **************************** Basis Set Parameters *****************************
  
 plane wave basis set cut-off                   :   400.0000   eV
 size of standard grid                          :     1.7500
 size of   fine   gmax                          :    17.9311   1/A
 finite basis set correction                    : none

 **************************** Electronic Parameters ****************************
  
 number of  electrons                           :  74.00    
 net charge of system                           :  0.000    
 treating system as non-spin-polarized
 number of bands                                :         52

 ********************* Electronic Minimization Parameters **********************
  
 Method: Treating system as metallic with density mixing treatment of electrons,
         and number of  SD  steps               :          1
         and number of  CG  steps               :          4
  
 total energy / atom convergence tol.           : 0.1000E-04   eV
 eigen-energy convergence tolerance             : 0.1000E-05   eV
 max force / atom convergence tol.              : ignored
 convergence tolerance window                   :          3   cycles
 max. number of SCF cycles                      :        100
 number of fixed-spin iterations                :         10
 smearing scheme                                : Gaussian
 smearing width                                 : 0.2000       eV
 Fermi energy convergence tolerance             : 0.2721E-13   eV
 periodic dipole correction                     : NONE

 ************************** Density Mixing Parameters **************************
  
 density-mixing scheme                          : Broyden
 max. length of mixing history                  :         20
 charge density mixing amplitude                : 0.8000    
 cut-off energy for mixing                      :  400.0       eV

 *********************** Population Analysis Parameters ************************
  
 Population analysis with cutoff                :  3.000       A

 ********************** Geometry Optimization Parameters ***********************
  
 optimization method                            : LBFGS
 max. no. of LBFGS updates                      : unbounded
 variable cell method                           : fixed basis quality
 max. number of steps                           :          2
 estimated bulk modulus                         :  500.0       GPa
 estimated <frequency>                          :  1668.       cm-1
 geom line minimiser                            : on
 with line minimiser tolerance                  :     0.4000
 total energy convergence tolerance             : 0.2000E-04   eV/atom
        max ionic |force| tolerance             : 0.5000E-01   eV/A
 max ionic |displacement| tolerance             : 0.1000E-02   A
   max |stress component| tolerance             : 0.1000       GPa
 convergence tolerance window                   :          2   steps
 backup results every                           : 2147483647   steps

 *******************************************************************************
  
 
                           -------------------------------
                                      Unit Cell
                           -------------------------------
        Real Lattice(A)                      Reciprocal Lattice(1/A)
   5.0677921   0.0989310   0.1528663        1.2431708  -0.0404343  -0.0846873
   0.1902039   5.5693034   0.1330204       -0.0239826   1.1274381   0.0654175
   0.6324483  -0.5402019   9.5419689       -0.0195818  -0.0150693   0.6589237
 
                       Lattice parameters(A)       Cell Angles
                    a =    5.071062          alpha =   91.737684
                    b =    5.574138          beta  =   84.553378
                    c =    9.578151          gamma =   86.886623
 
                       Current cell volume =  268.951999       A**3
 
                           -------------------------------
                                     Cell Contents
                           -------------------------------
                         Total number of ions in cell =   10
                      Total number of species in cell =    2
                        Max number of any one species =    6
 
            xxxxxxxxxxxxxxxxxxxxxxxxxxxxxxxxxxxxxxxxxxxxxxxxxxxxxxxxxxxx
            x  Element    Atom        Fractional coordinates of atoms  x
            x            Number           u          v          w      x
            x----------------------------------------------------------x
            x  Na           1         0.070961   0.663096   0.762989   x 
            x  Na           2         0.229742   0.743773   0.220118   x 
            x  Na           3         0.159501   0.612804   0.508604   x 
            x  Na           4         0.490389   0.058544   0.378497   x 
            x  Na           5         0.965337   0.405174   0.087057   x 
            x  Na           6         0.476267   0.805741   0.673637   x 
            x  P            1         0.385938   0.287650   0.740510   x 
            x  P            2         0.586626   0.522261   0.925159   x 
            x  P            3         0.809242   0.231428   0.579973   x 
            x  P            4         0.811072   0.418314   0.361654   x 
            xxxxxxxxxxxxxxxxxxxxxxxxxxxxxxxxxxxxxxxxxxxxxxxxxxxxxxxxxxxx
 
 
                         No user defined ionic velocities
 
                           -------------------------------
                                   Details of Species
                           -------------------------------
 
                               Mass of species in AMU
                                    Na   22.9897700
                                    P   30.9737600
 
                          Electric Quadrupole Moment (Barn)
                                    Na    0.1040000 Isotope 23
                                    P    1.0000000 No Isotope Defined
 
                          Files used for pseudopotentials:
                                    Na Na_00PBE.usp
                                    P P_00PBE.usp
 
                           -------------------------------
                              k-Points For BZ Sampling
                           -------------------------------
                       MP grid size for SCF calculation is  4  4  3
                            with an offset of   0.000  0.000  0.000
                       Number of kpoints used =            24
 
                           -------------------------------
                               Symmetry and Constraints
                           -------------------------------
 
                      Maximum deviation from symmetry = 0.188002E-14     ANG
 
                      Number of symmetry operations   =           1
                      Number of ionic constraints     =           3
                      Point group of crystal =     1: C1, 1, 1
                      Space group of crystal =     1: P1, P 1
 
             Set iprint > 1 for details on symmetry rotations/translations
 
                         Centre of mass is constrained
             Set iprint > 1 for details of linear ionic constraints
 
                         Number of cell constraints= 0
                         Cell constraints are:  1 2 3 4 5 6
 
                         External pressure/stress (GPa)
                          0.00000   0.00000   0.00000
                                    0.00000   0.00000
                                              0.00000
  
+---------------- MEMORY AND SCRATCH DISK ESTIMATES PER PROCESS --------------+
|                                                     Memory          Disk    |
| Baseline code, static data and system overhead      113.0 MB         0.0 MB |
| BLAS internal memory storage                          0.0 MB         0.0 MB |
| Model and support data                               70.6 MB         0.0 MB |
| Electronic energy minimisation requirements          29.3 MB         0.0 MB |
| Force calculation requirements                        6.6 MB         0.0 MB |
| Stress calculation requirements                       8.3 MB         0.0 MB |
|                                               ----------------------------- |
| Approx. total storage required per process          212.9 MB         0.0 MB |
|                                                                             |
| Requirements will fluctuate during execution and may exceed these estimates |
+-----------------------------------------------------------------------------+
------------------------------------------------------------------------ <-- SCF
SCF loop      Energy           Fermi           Energy gain       Timer   <-- SCF
                               energy          per atom          (sec)   <-- SCF
------------------------------------------------------------------------ <-- SCF
Initial  -7.88470509E+003  0.00000000E+000                         0.64  <-- SCF
      1  -8.33280605E+003  4.47990329E+000   4.48100962E+001       2.84  <-- SCF
      2  -8.53964305E+003  2.22831886E+000   2.06836997E+001       4.32  <-- SCF
      3  -8.54452483E+003  1.91833567E+000   4.88178456E-001       5.87  <-- SCF
      4  -8.54205680E+003  2.59720135E+000  -2.46803252E-001       7.79  <-- SCF
      5  -8.54195122E+003  2.53952628E+000  -1.05584860E-002       9.75  <-- SCF
      6  -8.54190987E+003  2.56476920E+000  -4.13501261E-003      11.68  <-- SCF
      7  -8.54190806E+003  2.57451792E+000  -1.81095137E-004      13.79  <-- SCF
      8  -8.54190944E+003  2.58518738E+000   1.38614295E-004      15.47  <-- SCF
      9  -8.54190969E+003  2.58887933E+000   2.52806737E-005      17.06  <-- SCF
     10  -8.54190987E+003  2.59263680E+000   1.70023801E-005      18.53  <-- SCF
     11  -8.54190992E+003  2.59451191E+000   5.86009976E-006      19.93  <-- SCF
     12  -8.54190993E+003  2.59557039E+000   1.10581742E-006      21.12  <-- SCF
------------------------------------------------------------------------ <-- SCF
 
Final energy, E             =  -8541.862964359     eV
Final free energy (E-TS)    =  -8541.909934669     eV
(energies not corrected for finite basis set)
 
NB est. 0K energy (E-0.5TS)      =  -8541.886449514     eV
 

WARNING - doing cell minimisation without finite basis correction:
        => now searching for a stationary and not minimum energy
 
+---------------- MEMORY AND SCRATCH DISK ESTIMATES PER PROCESS --------------+
|                                                     Memory          Disk    |
| Model and support data                               80.3 MB         0.0 MB |
| Electronic energy minimisation requirements          29.3 MB         0.0 MB |
| Geometry minimisation requirements                   37.7 MB         0.0 MB |
|                                               ----------------------------- |
| Approx. total storage required per process          147.3 MB         0.0 MB |
|                                                                             |
| Requirements will fluctuate during execution and may exceed these estimates |
+-----------------------------------------------------------------------------+
 
 
 *********************************** Forces ***********************************
 *                                                                            *
 *                        Cartesian components (eV/A)                         *
 * -------------------------------------------------------------------------- *
 *                   x                    y                    z              *
 *                                                                            *
 * Na        1     -1.75896              0.22027              1.83773         *
 * Na        2      0.16137             -0.19347             -0.66415         *
 * Na        3      0.00278             -0.58040             -0.73731         *
 * Na        4      0.11845              0.27821              0.01803         *
 * Na        5      0.14212             -0.68146             -0.55918         *
 * Na        6      1.84922              0.31833              0.35583         *
 * P         1      2.32517              0.62757              0.00011         *
 * P         2     -1.63972             -0.23916             -1.03867         *
 * P         3     -0.71553              0.32135             -0.02719         *
 * P         4     -0.48490             -0.07124              0.81481         *
 *                                                                            *
 ******************************************************************************
 
 ***************** Stress Tensor *****************
 *                                               *
 *          Cartesian components (GPa)           *
 * --------------------------------------------- *
 *             x             y             z     *
 *                                               *
 *  x      0.229385     -1.774061     -1.937746  *
 *  y     -1.774061      0.454438     -0.741512  *
 *  z     -1.937746     -0.741512     -0.455514  *
 *                                               *
 *  Pressure:   -0.0761                          *
 *                                               *
 *************************************************
 LBFGS: finished iteration     0 with enthalpy= -8.54190993E+003 eV
  
 +-----------+-----------------+-----------------+------------+-----+ <-- LBFGS
 | Parameter |      value      |    tolerance    |    units   | OK? | <-- LBFGS
 +-----------+-----------------+-----------------+------------+-----+ <-- LBFGS
 |  dE/ion   |   0.000000E+000 |   2.000000E-005 |         eV | No  | <-- LBFGS
 |  |F|max   |   2.553370E+000 |   5.000000E-002 |       eV/A | No  | <-- LBFGS
 |  |dR|max  |   0.000000E+000 |   1.000000E-003 |          A | No  | <-- LBFGS
 |   Smax    |   1.937746E+000 |   1.000000E-001 |        GPa | No  | <-- LBFGS
 +-----------+-----------------+-----------------+------------+-----+ <-- LBFGS
  

================================================================================
 Starting LBFGS iteration          1 ...
================================================================================
  
 +------------+-------------+-------------+-----------------+ <-- min LBFGS
 |    Step    |   lambda    |   F.delta'  |    enthalpy     | <-- min LBFGS
 +------------+-------------+-------------+-----------------+ <-- min LBFGS
 |  previous  |    0.000000 |    0.935116 |    -8541.909935 | <-- min LBFGS
 +------------+-------------+-------------+-----------------+ <-- min LBFGS
  

[...]
            x  Na           2         0.299817   0.638042   0.217222   x
            x  Na           3         0.126471   0.551938   0.537820   x
            x  Na           4         0.555041   0.005095   0.345104   x
            x  Na           5         1.090231   0.266940   0.021729   x
            x  Na           6         0.378682   0.921443   0.678126   x
            x  P            1         0.476291   0.364719   0.738789   x
            x  P            2         0.492965   0.580778   0.925669   x
            x  P            3         0.858412   0.158589   0.543469   x
            x  P            4         0.869536   0.373601   0.338652   x
            xxxxxxxxxxxxxxxxxxxxxxxxxxxxxxxxxxxxxxxxxxxxxxxxxxxxxxxxxxxx
 
 
------------------------------------------------------------------------ <-- SCF
SCF loop      Energy           Fermi           Energy gain       Timer   <-- SCF
                               energy          per atom          (sec)   <-- SCF
------------------------------------------------------------------------ <-- SCF
Initial  -8.54689643E+003  0.00000000E+000                        48.98  <-- SCF
      1  -8.54693672E+003  3.92143179E+000   4.02880709E-003      52.22  <-- SCF
      2  -8.54693721E+003  3.92142187E+000   4.95239190E-005      56.11  <-- SCF
      3  -8.54692338E+003  3.92492133E+000  -1.38272511E-003      59.62  <-- SCF
      4  -8.54692271E+003  3.92345349E+000  -6.75610524E-005      63.08  <-- SCF
      5  -8.54692263E+003  3.92405269E+000  -7.37881077E-006      65.82  <-- SCF
      6  -8.54692261E+003  3.92428320E+000  -2.34063155E-006      68.18  <-- SCF
------------------------------------------------------------------------ <-- SCF
 
Final energy, E             =  -8546.922112400     eV
Final free energy (E-TS)    =  -8546.922611273     eV
(energies not corrected for finite basis set)
 
NB est. 0K energy (E-0.5TS)      =  -8546.922361837     eV
 
 
 *********************************** Forces ***********************************
 *                                                                            *
 *                        Cartesian components (eV/A)                         *
 * -------------------------------------------------------------------------- *
 *                   x                    y                    z              *
 *                                                                            *
 * Na        1      0.02016              0.00909             -0.01740         *
 * Na        2      0.00754              0.01264             -0.01689         *
 * Na        3     -0.00226              0.00346              0.02169         *
 * Na        4      0.00994             -0.01023             -0.00381         *
 * Na        5     -0.00408             -0.01327             -0.00300         *
 * Na        6     -0.01908             -0.00699              0.00486         *
 * P         1     -0.02698             -0.00227             -0.00328         *
 * P         2      0.00338              0.01480              0.03287         *
 * P         3      0.00644              0.00183             -0.02428         *
 * P         4      0.00494             -0.00906              0.00923         *
 *                                                                            *
 ******************************************************************************
 
 ***************** Stress Tensor *****************
 *                                               *
 *          Cartesian components (GPa)           *
 * --------------------------------------------- *
 *             x             y             z     *
 *                                               *
 *  x      0.028816     -0.008633      0.005623  *
 *  y     -0.008633      0.075720     -0.021422  *
 *  z      0.005623     -0.021422      0.071243  *
 *                                               *
 *  Pressure:   -0.0586                          *
 *                                               *
 *************************************************
  
 +------------+-------------+-------------+-----------------+ <-- min LBFGS
 |    Step    |   lambda    |   F.delta'  |    enthalpy     | <-- min LBFGS
 +------------+-------------+-------------+-----------------+ <-- min LBFGS
 |  previous  |    0.000000 |    0.020252 |    -8546.922258 | <-- min LBFGS
 | trial step |    1.000000 |    0.019379 |    -8546.922316 | <-- min LBFGS
 |  line step |   23.182062 |   -0.001583 |    -8546.922611 | <-- min LBFGS
 +------------+-------------+-------------+-----------------+ <-- min LBFGS
  
 LBFGS: finished iteration     1 with enthalpy= -8.54692261E+003 eV
  
 +-----------+-----------------+-----------------+------------+-----+ <-- LBFGS
 | Parameter |      value      |    tolerance    |    units   | OK? | <-- LBFGS
 +-----------+-----------------+-----------------+------------+-----+ <-- LBFGS
 |  dE/ion   |   3.532607E-005 |   2.000000E-005 |         eV | No  | <-- LBFGS
 |  |F|max   |   3.620596E-002 |   5.000000E-002 |       eV/A | Yes | <-- LBFGS
 |  |dR|max  |   5.460137E-003 |   1.000000E-003 |          A | No  | <-- LBFGS
 |   Smax    |   7.572006E-002 |   1.000000E-001 |        GPa | Yes | <-- LBFGS
 +-----------+-----------------+-----------------+------------+-----+ <-- LBFGS
  

================================================================================
 Starting LBFGS iteration          2 ...
================================================================================
  
 +------------+-------------+-------------+-----------------+ <-- min LBFGS
 |    Step    |   lambda    |   F.delta'  |    enthalpy     | <-- min LBFGS
 +------------+-------------+-------------+-----------------+ <-- min LBFGS
 |  previous  |    0.000000 |    0.009048 |    -8546.922611 | <-- min LBFGS
 +------------+-------------+-------------+-----------------+ <-- min LBFGS
  

--------------------------------------------------------------------------------
 LBFGS: starting iteration         2 with trial guess (lambda=  1.000000)
--------------------------------------------------------------------------------
 
                           -------------------------------
                                      Unit Cell
                           -------------------------------
        Real Lattice(A)              Reciprocal Lattice(1/A)
   4.8329138   1.2171046   0.5824941        1.4252647  -0.3960992  -0.2109927
   1.4510225   5.1558504   0.1225780       -0.3420370   1.3126506   0.0951119
   1.3527965  -0.3583865   9.8110003       -0.0803468   0.0071168   0.6517611
 
                       Lattice parameters(A)       Cell Angles
                    a =    5.017738          alpha =   88.577829
                    b =    5.357545          beta  =   76.253418
                    c =    9.910309          gamma =   60.201851
 
                Current cell volume =  223.190103 A**3
 
                           -------------------------------
                                     Cell Contents
                           -------------------------------
 
            xxxxxxxxxxxxxxxxxxxxxxxxxxxxxxxxxxxxxxxxxxxxxxxxxxxxxxxxxxxx
            x  Element    Atom        Fractional coordinates of atoms  x
            x            Number           u          v          w      x
            x----------------------------------------------------------x
            x  Na           1        -0.162363   0.887649   0.891621   x
            x  Na           2         0.299815   0.638046   0.217221   x
            x  Na           3         0.126465   0.551939   0.537822   x
            x  Na           4         0.555045   0.005093   0.345100   x
            x  Na           5         1.090230   0.266938   0.021730   x
            x  Na           6         0.378679   0.921444   0.678128   x
            x  P            1         0.476257   0.364694   0.738789   x
            x  P            2         0.492984   0.580804   0.925677   x
            x  P            3         0.858426   0.158616   0.543437   x
            x  P            4         0.869542   0.373569   0.338674   x
            xxxxxxxxxxxxxxxxxxxxxxxxxxxxxxxxxxxxxxxxxxxxxxxxxxxxxxxxxxxx
 
 
------------------------------------------------------------------------ <-- SCF
SCF loop      Energy           Fermi           Energy gain       Timer   <-- SCF
                               energy          per atom          (sec)   <-- SCF
------------------------------------------------------------------------ <-- SCF
Initial  -8.54692201E+003  0.00000000E+000                        70.01  <-- SCF
      1  -8.54692273E+003  3.92619430E+000   7.12775856E-005      72.90  <-- SCF
      2  -8.54692273E+003  3.92619424E+000   4.45211263E-007      75.19  <-- SCF
      3  -8.54692262E+003  3.92478793E+000  -1.05714869E-005      78.04  <-- SCF
      4  -8.54692262E+003  3.92498241E+000  -8.29875360E-007      80.27  <-- SCF
      5  -8.54692261E+003  3.92490276E+000  -1.85296250E-007      82.50  <-- SCF
------------------------------------------------------------------------ <-- SCF
 
Final energy, E             =  -8546.922111847     eV
Final free energy (E-TS)    =  -8546.922614706     eV
(energies not corrected for finite basis set)
 
NB est. 0K energy (E-0.5TS)      =  -8546.922363276     eV
 
 
 *********************************** Forces ***********************************
 *                                                                            *
 *                        Cartesian components (eV/A)                         *
 * -------------------------------------------------------------------------- *
 *                   x                    y                    z              *
 *                                                                            *
 * Na        1      0.00176              0.00066             -0.00343         *
 * Na        2      0.00306              0.01048              0.00268         *
 * Na        3     -0.00179             -0.00514              0.00143         *
 * Na        4      0.00617             -0.00230             -0.00628         *
 * Na        5     -0.00049             -0.00780              0.00309         *
 * Na        6     -0.00251              0.00143             -0.00530         *
 * P         1     -0.01702              0.00426             -0.00257         *
 * P         2     -0.00119              0.00705              0.02681         *
 * P         3      0.00537             -0.00746             -0.01355         *
 * P         4      0.00663             -0.00118             -0.00287         *
 *                                                                            *
 ******************************************************************************
 
 ***************** Stress Tensor *****************
 *                                               *
 *          Cartesian components (GPa)           *
 * --------------------------------------------- *
 *             x             y             z     *
 *                                               *
 *  x     -0.072573     -0.008175      0.005364  *
 *  y     -0.008175     -0.031627     -0.018075  *
 *  z      0.005364     -0.018075     -0.037357  *
 *                                               *
 *  Pressure:    0.0472                          *
 *                                               *
 *************************************************
  
 +------------+-------------+-------------+-----------------+ <-- min LBFGS
 |    Step    |   lambda    |   F.delta'  |    enthalpy     | <-- min LBFGS
 +------------+-------------+-------------+-----------------+ <-- min LBFGS
 |  previous  |    0.000000 |    0.009048 |    -8546.922611 | <-- min LBFGS
 | trial step |    1.000000 |    0.002526 |    -8546.922615 | <-- min LBFGS
 +------------+-------------+-------------+-----------------+ <-- min LBFGS
  
 LBFGS: finished iteration     2 with enthalpy= -8.54692261E+003 eV
  
 +-----------+-----------------+-----------------+------------+-----+ <-- LBFGS
 | Parameter |      value      |    tolerance    |    units   | OK? | <-- LBFGS
 +-----------+-----------------+-----------------+------------+-----+ <-- LBFGS
 |  dE/ion   |   3.433038E-007 |   2.000000E-005 |         eV | Yes | <-- LBFGS
 |  |F|max   |   2.774967E-002 |   5.000000E-002 |       eV/A | Yes | <-- LBFGS
 |  |dR|max  |   3.451041E-004 |   1.000000E-003 |          A | Yes | <-- LBFGS
 |   Smax    |   7.257297E-002 |   1.000000E-001 |        GPa | Yes | <-- LBFGS
 +-----------+-----------------+-----------------+------------+-----+ <-- LBFGS
  
 LBFGS: Geometry optimization completed successfully.

================================================================================
 LBFGS: Final Configuration:
================================================================================
 
                           -------------------------------
                                      Unit Cell
                           -------------------------------
        Real Lattice(A)              Reciprocal Lattice(1/A)
   4.8329138   1.2171046   0.5824941        1.4252647  -0.3960992  -0.2109927
   1.4510225   5.1558504   0.1225780       -0.3420370   1.3126506   0.0951119
   1.3527965  -0.3583865   9.8110003       -0.0803468   0.0071168   0.6517611
 
                       Lattice parameters(A)       Cell Angles
                    a =    5.017738          alpha =   88.577829
                    b =    5.357545          beta  =   76.253418
                    c =    9.910309          gamma =   60.201851
 
                Current cell volume =  223.190103 A**3
 
                           -------------------------------
                                     Cell Contents
                           -------------------------------
 
            xxxxxxxxxxxxxxxxxxxxxxxxxxxxxxxxxxxxxxxxxxxxxxxxxxxxxxxxxxxx
            x  Element    Atom        Fractional coordinates of atoms  x
            x            Number           u          v          w      x
            x----------------------------------------------------------x
            x  Na           1        -0.162363   0.887649   0.891621   x
            x  Na           2         0.299815   0.638046   0.217221   x
            x  Na           3         0.126465   0.551939   0.537822   x
            x  Na           4         0.555045   0.005093   0.345100   x
            x  Na           5         1.090230   0.266938   0.021730   x
            x  Na           6         0.378679   0.921444   0.678128   x
            x  P            1         0.476257   0.364694   0.738789   x
            x  P            2         0.492984   0.580804   0.925677   x
            x  P            3         0.858426   0.158616   0.543437   x
            x  P            4         0.869542   0.373569   0.338674   x
            xxxxxxxxxxxxxxxxxxxxxxxxxxxxxxxxxxxxxxxxxxxxxxxxxxxxxxxxxxxx
 
 
 LBFGS: Final Enthalpy     = -8.54692261E+003 eV
 LBFGS: Final <frequency>  =     829.04031 cm-1
 LBFGS: Final bulk modulus =     360.64798 GPa
  
  **********************************************************
  *** There were at least     1 warnings during this run ***
  *** => please check the whole of this file carefully!  ***
  **********************************************************
 
 ***************************** Symmetrised Forces *****************************
 *                                                                            *
 *                        Cartesian components (eV/A)                         *
 * -------------------------------------------------------------------------- *
 *                   x                    y                    z              *
 *                                                                            *
 * Na        1      0.00176              0.00066             -0.00343         *
 * Na        2      0.00306              0.01048              0.00268         *
 * Na        3     -0.00179             -0.00514              0.00143         *
 * Na        4      0.00617             -0.00230             -0.00628         *
 * Na        5     -0.00049             -0.00780              0.00309         *
 * Na        6     -0.00251              0.00143             -0.00530         *
 * P         1     -0.01702              0.00426             -0.00257         *
 * P         2     -0.00119              0.00705              0.02681         *
 * P         3      0.00537             -0.00746             -0.01355         *
 * P         4      0.00663             -0.00118             -0.00287         *
 *                                                                            *
 ******************************************************************************
 
 *********** Symmetrised Stress Tensor ***********
 *                                               *
 *          Cartesian components (GPa)           *
 * --------------------------------------------- *
 *             x             y             z     *
 *                                               *
 *  x     -0.072573     -0.008175      0.005364  *
 *  y     -0.008175     -0.031627     -0.018075  *
 *  z      0.005364     -0.018075     -0.037357  *
 *                                               *
 *  Pressure:    0.0472                          *
 *                                               *
 *************************************************
 
 Pseudo atomic calculation performed for Na 2s2 2p6 3s1
 
 Converged in 13 iterations to a total energy of -1302.5052 eV
 
 
 Pseudo atomic calculation performed for P 3s2 3p3
 
 Converged in 12 iterations to a total energy of -174.2023 eV
 
Charge spilling parameter for spin component 1 = 0.23%
 
     Atomic Populations (Mulliken)
     -----------------------------
Species   Ion     s      p      d      f     Total  Charge (e)
==============================================================
  Na       1     2.22   6.41   0.00   0.00   8.62     0.38
  Na       2     2.28   6.46   0.00   0.00   8.74     0.26
  Na       3     2.22   6.29   0.00   0.00   8.52     0.48
  Na       4     2.23   6.39   0.00   0.00   8.61     0.39
  Na       5     2.25   6.38   0.00   0.00   8.63     0.37
  Na       6     2.22   6.31   0.00   0.00   8.53     0.47
  P        1     1.74   3.73   0.00   0.00   5.47    -0.47
  P        2     1.74   3.98   0.00   0.00   5.72    -0.72
  P        3     1.73   3.72   0.00   0.00   5.45    -0.45
  P        4     1.76   3.95   0.00   0.00   5.71    -0.71
==============================================================
 
            Bond              Population      Length (A)
============================================================
          P 1 -- P 3               0.49        2.20948
          P 1 -- P 2               0.37        2.24830
          P 3 -- P 4               0.32        2.31113
         Na 6 -- P 1               0.25        2.75805
         Na 2 -- P 2               0.30        2.79269
         Na 3 -- P 1              -0.01        2.80460
         Na 3 -- P 3               0.48        2.82932
         Na 1 -- P 2               0.55        2.88581
         Na 6 -- P 3               0.31        2.91309
         Na 4 -- P 4               0.71        2.93226
         Na 1 -- P 1               0.22        2.93618
         Na 3 -- Na 4             -0.63        2.98659
         Na 5 -- P 2               0.56        2.99708
         Na 3 -- P 4              -0.10        2.99961
============================================================
 
Initialisation time =      0.40 s
Calculation time    =     84.36 s
Finalisation time   =      0.03 s
Total time          =     84.79 s
Peak Memory Use     = 196252 kB
  
Overall parallel efficiency rating: Poor (47%)                                  
  
Data was distributed by:-
G-vector (8-way); efficiency rating: Poor (48%)                                 
k-point (2-way); efficiency rating: Excellent (97%)                             
  
Parallel notes:
1) Calculation only took 84.8 s, so efficiency estimates may be inaccurate.     
