 +-------------------------------------------------+
 |                                                 |
 |      CCC   AA    SSS  TTTTT  EEEEE  PPPP        |
 |     C     A  A  S       T    E      P   P       |
 |     C     AAAA   SS     T    EEE    PPPP        |
 |     C     A  A     S    T    E      P           |
 |      CCC  A  A  SSS     T    EEEEE  P           |
 |                                                 |
 +-------------------------------------------------+
 |                                                 |
 | Welcome to Academic Release CASTEP version 17.21|          
 | Ab Initio Total Energy Program                  |
 |                                                 |
 | Authors:                                        |
 | M. Segall, M. Probert, C. Pickard, P. Hasnip,   |
 | S. Clark, K. Refson, J. R. Yates, M. Payne      |
 |                                                 |
 | Contributors:                                   |
 | P. Lindan, P. Haynes, J. White, V. Milman,      |
 | N. Govind, M. Gibson, P. Tulip, V. Cocula,      |
 | B. Montanari, D. Quigley, M. Glover,            |
 | L. Bernasconi, A. Perlov, M. Plummer,           |
 | E. McNellis, J. Meyer, J. Gale, D. Jochym       |
 | J. Aarons, B. Walker, R. Gillen, D. Jones       |
 | T. Green, I. J. Bush, C. J. Armstrong,          |
 | E. J. Higgins, E. L. Brown, M. S. McFly,        |
 | J. Wilkins, B-C. Shih, P. J. P. Byrne           |
 |                                                 |
 | Copyright (c) 2000 - 2017                       |
 |                                                 |
 |     Distributed under the terms of an           |
 |     Agreement between the United Kingdom        |
 |     Car-Parrinello (UKCP) Consortium,           |
 |     Daresbury Laboratory and Accelrys, Inc.     |
 |                                                 |
 | Please cite                                     |
 |                                                 |
 |     "First principles methods using CASTEP"     |
 |                                                 |
 |         Zeitschrift fuer Kristallographie       |
 |           220(5-6) pp. 567-570 (2005)           |
 |                                                 |
 | S. J. Clark, M. D. Segall, C. J. Pickard,       |
 | P. J. Hasnip, M. J. Probert, K. Refson,         |
 | M. C. Payne                                     |
 |                                                 |
 |       in all publications arising from          |
 |              your use of CASTEP                 |
 |                                                 |
 +-------------------------------------------------+
 
 
 Compiled for linux_x86_64_ifort17 on Fri, 08 Sep 2017 17:58:23 +0100
 from code version 
 056e886bd5a1+ Castep172_branch Mon, 15 May 2017 14:45:35 +0100
 Compiler: Intel Fortran 17.0.2.174; Optimisation: fast
 MATHLIBS: Intel MKL(2017.0.2) (LAPACK version 3.7.0)
 FFT Lib : mkl
 Fundamental constants values: CODATA 2010
 
 Run started: Thu, 04 Jul 2019 23:53:57 +0100
 
 Atomic calculation performed for O: 1s2 2s2 2p4
 
 Converged in 61 iterations to an ae energy of -2040.902 eV
 
   ============================================================                
   | Pseudopotential Report - Date of generation  4-07-2019   |                
   ------------------------------------------------------------                
   | Element: O Ionic charge:  6.00 Level of theory: PBE      |                
   | Atomic Solver: Koelling-Harmon                           |                
   |                                                          |                
   |               Reference Electronic Structure             |                
   |         Orbital         Occupation         Energy        |                
   |            2s              2.000           -0.881        |                
   |            2p              4.000           -0.332        |                
   |                                                          |                
   |                 Pseudopotential Definition               |                
   |        Beta     l      e      Rc     scheme   norm       |                
   |          1      0   -0.881   1.697     qc      0         |                
   |          2      0    0.250   1.697     qc      0         |                
   |          3      1   -0.332   1.697     qc      0         |                
   |          4      1    0.250   1.697     qc      0         |                
   |         loc     2    0.000   1.697     pn      0         |                
   |                                                          |                
   | Augmentation charge Rinner = 1.186                       |                
   | Partial core correction Rc = 1.186                       |                
   ------------------------------------------------------------                
   | "2|1.7|7|7|9|20:21(qc=5)"                                |                
   ------------------------------------------------------------                
   |      Author: Chris J. Pickard, Cambridge University      |                
   ============================================================                
 
 Atomic calculation performed for S: 1s2 2s2 2p6 3s2 3p4
 
 Converged in 57 iterations to an ae energy of -10858.586 eV
 
   ============================================================                
   | Pseudopotential Report - Date of generation  4-07-2019   |                
   ------------------------------------------------------------                
   | Element: S Ionic charge:  6.00 Level of theory: PBE      |                
   | Atomic Solver: Koelling-Harmon                           |                
   |                                                          |                
   |               Reference Electronic Structure             |                
   |         Orbital         Occupation         Energy        |                
   |            3s              2.000           -0.634        |                
   |            3p              4.000           -0.258        |                
   |                                                          |                
   |                 Pseudopotential Definition               |                
   |        Beta     l      e      Rc     scheme   norm       |                
   |          1      0   -0.634   1.796     qc      0         |                
   |          2      0    0.250   1.796     qc      0         |                
   |          3      1   -0.258   1.796     qc      0         |                
   |          4      1    0.250   1.796     qc      0         |                
   |          5      2    0.000   1.796     qc      0         |                
   |          6      2    0.250   1.796     qc      0         |                
   |         loc     3    0.000   1.796     pn      0         |                
   |                                                          |                
   | Augmentation charge Rinner = 1.255                       |                
   | Partial core correction Rc = 1.255                       |                
   ------------------------------------------------------------                
   | "3|1.8|5|6|7|30:31:32(qc=5)"                             |                
   ------------------------------------------------------------                
   |      Author: Chris J. Pickard, Cambridge University      |                
   ============================================================                
 
 Atomic calculation performed for V: 1s2 2s2 2p6 3s2 3p6 3d3 4s2
 
 Converged in 79 iterations to an ae energy of -25823.732 eV
 
   ============================================================                
   | Pseudopotential Report - Date of generation  4-07-2019   |                
   ------------------------------------------------------------                
   | Element: V Ionic charge: 13.00 Level of theory: PBE      |                
   | Atomic Solver: Koelling-Harmon                           |                
   |                                                          |                
   |               Reference Electronic Structure             |                
   |         Orbital         Occupation         Energy        |                
   |            3s              2.000           -2.581        |                
   |            3p              6.000           -1.618        |                
   |            3d              3.000           -0.190        |                
   |            4s              2.000           -0.173        |                
   |                                                          |                
   |                 Pseudopotential Definition               |                
   |        Beta     l      e      Rc     scheme   norm       |                
   |          1      0   -2.581   1.993     qc      0         |                
   |          2      0   -0.173   1.993     qc      0         |                
   |          3      0    0.250   1.993     qc      0         |                
   |          4      1   -1.618   1.993     qc      0         |                
   |          5      1    0.250   1.993     qc      0         |                
   |          6      2   -0.190   1.993     qc      0         |                
   |          7      2    0.250   1.993     qc      0         |                
   |         loc     3    0.000   1.993     pn      0         |                
   |                                                          |                
   | Augmentation charge Rinner = 0.998                       |                
   | Partial core correction Rc = 0.998                       |                
   ------------------------------------------------------------                
   | "3|2.0|2.0|1.0|7|7|9|30U:40:31:32(qc=5)"                 |                
   ------------------------------------------------------------                
   |      Author: Chris J. Pickard, Cambridge University      |                
   ============================================================                
 
 Pseudo atomic calculation performed for O 2s2 2p4
 
 Converged in 12 iterations to a total energy of -431.3437 eV
 
 
 Pseudo atomic calculation performed for S 3s2 3p4
 
 Converged in 19 iterations to a total energy of -299.4518 eV
 
 
 Pseudo atomic calculation performed for V 3s2 3p6 3d3 4s2
 
 Converged in 33 iterations to a total energy of -1945.7424 eV
 
 Calculation parallelised over 4 processes.
 Data is distributed by k-point(4-way)

 ************************************ Title ************************************
 

 ***************************** General Parameters ******************************
  
 output verbosity                               : normal  (1)
 write checkpoint data to                       : 18307.check
 type of calculation                            : geometry optimization
 stress calculation                             : on
 density difference calculation                 : on
 electron localisation func (ELF) calculation   : off
 Hirshfeld analysis                             : off
 unlimited duration calculation
 timing information                             : on
 memory usage estimate                          : on
 write final potential to formatted file        : off
 write final density to formatted file          : on
 write BibTeX reference list                    : on
 write OTFG pseudopotential files               : on
 write electrostatic potential file             : on
 write bands file                               : on
 checkpoint writing                             : both castep_bin and check files
  
 output         length unit                     : A
 output           mass unit                     : amu
 output           time unit                     : ps
 output         charge unit                     : e
 output           spin unit                     : hbar/2
 output         energy unit                     : eV
 output          force unit                     : eV/A
 output       velocity unit                     : A/ps
 output       pressure unit                     : GPa
 output     inv_length unit                     : 1/A
 output      frequency unit                     : cm-1
 output force constant unit                     : eV/A**2
 output         volume unit                     : A**3
 output   IR intensity unit                     : (D/A)**2/amu
 output         dipole unit                     : D
 output         efield unit                     : eV/A/e
 output        entropy unit                     : J/mol/K
  
 wavefunctions paging                           : none
 random number generator seed                   : randomised (235357900)
 data distribution                              : optimal for this architecture
 optimization strategy                          : maximize speed(+++)

 *********************** Exchange-Correlation Parameters ***********************
  
 using functional                               : Perdew Burke Ernzerhof
 relativistic treatment                         : Koelling-Harmon
 DFT+D: Semi-empirical dispersion correction    : off

 ************************* Pseudopotential Parameters **************************
  
 pseudopotential representation                 : reciprocal space
 <beta|phi> representation                      : reciprocal space
 spin-orbit coupling                            : off

 **************************** Basis Set Parameters *****************************
  
 plane wave basis set cut-off                   :   800.0000   eV
 size of standard grid                          :     2.0000
 size of   fine   gmax                          :    28.9810   1/A
 finite basis set correction                    : none

 **************************** Electronic Parameters ****************************
  
 number of  electrons                           :  98.00    
 net charge of system                           :  0.000    
 treating system as non-spin-polarized
 number of bands                                :         59

 ********************* Electronic Minimization Parameters **********************
  
 Method: Treating system as metallic with density mixing treatment of electrons,
         and number of  SD  steps               :          1
         and number of  CG  steps               :          4
  
 total energy / atom convergence tol.           : 0.1000E-04   eV
 eigen-energy convergence tolerance             : 0.1000E-05   eV
 max force / atom convergence tol.              : ignored
 convergence tolerance window                   :          3   cycles
 max. number of SCF cycles                      :         30
 number of fixed-spin iterations                :         10
 smearing scheme                                : Gaussian
 smearing width                                 : 0.2000       eV
 Fermi energy convergence tolerance             : 0.2721E-13   eV
 periodic dipole correction                     : NONE

 ************************** Density Mixing Parameters **************************
  
 density-mixing scheme                          : Pulay
 max. length of mixing history                  :         20
 charge density mixing amplitude                : 0.4000    
 cut-off energy for mixing                      :  800.0       eV

 *********************** Population Analysis Parameters ************************
  
 Population analysis with cutoff                :  3.000       A

 ********************** Geometry Optimization Parameters ***********************
  
 optimization method                            : BFGS
 variable cell method                           : fixed basis quality
 max. number of steps                           :          2
 estimated bulk modulus                         :  500.0       GPa
 estimated <frequency>                          :  1668.       cm-1
 geom line minimiser                            : on
 with line minimiser tolerance                  :     0.4000
 total energy convergence tolerance             : 0.2000E-04   eV/atom
        max ionic |force| tolerance             : 0.5000E-01   eV/A
 max ionic |displacement| tolerance             : 0.1000E-02   A
   max |stress component| tolerance             : 0.1000       GPa
 convergence tolerance window                   :          2   steps
 backup results every                           :          5   steps
 write geom trajectory file                     : on

 *******************************************************************************
  
 
                           -------------------------------
                                      Unit Cell
                           -------------------------------
        Real Lattice(A)                      Reciprocal Lattice(1/A)
   6.2610000   0.0000000   0.0000000        1.0035434   0.0000000   0.0000000
   0.0000000   6.2610000   0.0000000        0.0000000   1.0035434   0.0000000
   0.0000000   0.0000000   4.1010000        0.0000000   0.0000000   1.5321105
 
                       Lattice parameters(A)       Cell Angles
                    a =    6.261000          alpha =   90.000000
                    b =    6.261000          beta  =   90.000000
                    c =    4.101000          gamma =   90.000000
 
                       Current cell volume =  160.759696       A**3
                                   density =    2.027927   AMU/A**3
                                           =    3.367452     g/cm^3
 
                           -------------------------------
                                     Cell Contents
                           -------------------------------
                         Total number of ions in cell =   14
                      Total number of species in cell =    3
                        Max number of any one species =   10
 
            xxxxxxxxxxxxxxxxxxxxxxxxxxxxxxxxxxxxxxxxxxxxxxxxxxxxxxxxxxxx
            x  Element    Atom        Fractional coordinates of atoms  x
            x            Number           u          v          w      x
            x----------------------------------------------------------x
            x  O            1         0.000000   0.500000   0.220000   x 
            x  O            2         0.817000   0.038000   0.285000   x 
            x  O            3         0.462000   0.317000   0.285000   x 
            x  O            4         0.538000   0.683000   0.285000   x 
            x  O            5         0.183000   0.962000   0.285000   x 
            x  O            6         0.038000   0.183000   0.715000   x 
            x  O            7         0.683000   0.462000   0.715000   x 
            x  O            8         0.317000   0.538000   0.715000   x 
            x  O            9         0.962000   0.817000   0.715000   x 
            x  O           10         0.500000   0.000000   0.780000   x 
            x  S            1         0.000000   0.000000   0.500000   x 
            x  S            2         0.500000   0.500000   0.500000   x 
            x  V            1         0.500000   0.000000   0.382400   x 
            x  V            2         0.000000   0.500000   0.617600   x 
            xxxxxxxxxxxxxxxxxxxxxxxxxxxxxxxxxxxxxxxxxxxxxxxxxxxxxxxxxxxx
 
 
                         No user defined ionic velocities
 
                           -------------------------------
                                   Details of Species
                           -------------------------------
 
                               Mass of species in AMU
                                    O   15.9994000
                                    S   32.0660000
                                    V   50.9415000
 
                          Electric Quadrupole Moment (Barn)
                                    O   -0.0255800 Isotope 17
                                    S   -0.0678000 Isotope 33
                                    V   -0.0520000 Isotope 51
 
                          Files used for pseudopotentials:
                                    O 2|1.7|7|7|9|20:21(qc=5)
                                    S 3|1.8|5|6|7|30:31:32(qc=5)
                                    V 3|2.0|2.0|1.0|7|7|9|30U:40:31:32(qc=5)
 
                           -------------------------------
                              k-Points For BZ Sampling
                           -------------------------------
                       MP grid size for SCF calculation is  4  4  5
                            with an offset of   0.000  0.000  0.000
                       Number of kpoints used =            40
 
                           -------------------------------
                               Symmetry and Constraints
                           -------------------------------
 
                      Maximum deviation from symmetry =  0.00000         ANG
 
                      Number of symmetry operations   =           1
                      Number of ionic constraints     =           3
                      Point group of crystal =     1: C1, 1, 1
                      Space group of crystal =    85: P4/n, P 4ab -1ab
 
             Set iprint > 1 for details on symmetry rotations/translations
 
                         Centre of mass is constrained
             Set iprint > 1 for details of linear ionic constraints
 
                         Number of cell constraints= 0
                         Cell constraints are:  1 2 3 4 5 6
 
                         External pressure/stress (GPa)
                          0.00000   0.00000   0.00000
                                    0.00000   0.00000
                                              0.00000
  
+---------------- MEMORY AND SCRATCH DISK ESTIMATES PER PROCESS --------------+
|                                                     Memory          Disk    |
| Baseline code, static data and system overhead      164.0 MB         0.0 MB |
| BLAS internal memory storage                          0.0 MB         0.0 MB |
| Model and support data                              632.5 MB         0.0 MB |
| Electronic energy minimisation requirements         211.2 MB         0.0 MB |
| Force calculation requirements                       20.9 MB         0.0 MB |
| Stress calculation requirements                      23.1 MB         0.0 MB |
|                                               ----------------------------- |
| Approx. total storage required per process         1007.7 MB         0.0 MB |
|                                                                             |
| Requirements will fluctuate during execution and may exceed these estimates |
+-----------------------------------------------------------------------------+
Calculating total energy with cut-off of  800.000 eV.
------------------------------------------------------------------------ <-- SCF
SCF loop      Energy           Fermi           Energy gain       Timer   <-- SCF
                               energy          per atom          (sec)   <-- SCF
------------------------------------------------------------------------ <-- SCF
Initial  -6.64843518E+003  0.00000000E+000                        15.01  <-- SCF
      1  -8.63525115E+003  3.35256730E+000   1.41915426E+002      31.11  <-- SCF
      2  -8.90890682E+003  4.21450833E+000   1.95468339E+001      43.02  <-- SCF
      3  -8.91487763E+003  4.31418068E+000   4.26486633E-001      54.38  <-- SCF
      4  -8.90403149E+003  2.04449577E+000  -7.74724489E-001      67.97  <-- SCF
      5  -8.90155808E+003  4.13833079E+000  -1.76672374E-001      82.13  <-- SCF
      6  -8.90053175E+003  3.68779850E+000  -7.33093234E-002      96.57  <-- SCF
      7  -8.90105802E+003  3.51607695E+000   3.75910798E-002     111.18  <-- SCF
      8  -8.90021515E+003  3.50200810E+000  -6.02054593E-002     125.04  <-- SCF
      9  -8.90053260E+003  3.61844107E+000   2.26751539E-002     138.99  <-- SCF
     10  -8.90054288E+003  3.64717019E+000   7.34474680E-004     154.47  <-- SCF
     11  -8.90054529E+003  3.66401235E+000   1.72068624E-004     168.07  <-- SCF
     12  -8.90054225E+003  3.66798148E+000  -2.17014278E-004     181.22  <-- SCF
     13  -8.90054505E+003  3.66808417E+000   1.99664634E-004     193.41  <-- SCF
     14  -8.90054507E+003  3.66613328E+000   1.54473369E-006     203.48  <-- SCF
     15  -8.90054507E+003  3.66725755E+000   2.92541835E-007     212.78  <-- SCF
------------------------------------------------------------------------ <-- SCF
 
Final energy, E             =  -8900.330164308     eV
Final free energy (E-TS)    =  -8900.545073601     eV
(energies not corrected for finite basis set)
 
NB est. 0K energy (E-0.5TS)      =  -8900.437618954     eV
 

Writing analysis data to 18307.castep_bin

Writing model to 18307.check

WARNING - doing cell minimisation without finite basis correction:
        => now searching for a stationary and not minimum energy
 
+---------------- MEMORY AND SCRATCH DISK ESTIMATES PER PROCESS --------------+
|                                                     Memory          Disk    |
| Model and support data                              636.9 MB         0.0 MB |
| Electronic energy minimisation requirements         211.2 MB         0.0 MB |
| Geometry minimisation requirements                  289.5 MB         0.0 MB |
|                                               ----------------------------- |
| Approx. total storage required per process         1137.6 MB         0.0 MB |
|                                                                             |
| Requirements will fluctuate during execution and may exceed these estimates |
+-----------------------------------------------------------------------------+
 
 
 ******************************** Constrained Forces ********************************
 *                                                                                  *
 *                           Cartesian components (eV/A)                            *
 * -------------------------------------------------------------------------------- *
 *                         x                    y                    z              *
 *                                                                                  *
 * O               1      0.00000              0.00000              0.97099         *
 * O               2     -2.70308              0.33183             -1.17519         *
 * O               3     -0.33183             -2.70308             -1.17519         *
 * O               4      0.33183              2.70308             -1.17520         *
 * O               5      2.70308             -0.33183             -1.17520         *
 * O               6      0.33213              2.70381              1.17517         *
 * O               7      2.70382             -0.33213              1.17517         *
 * O               8     -2.70382              0.33213              1.17517         *
 * O               9     -0.33213             -2.70381              1.17516         *
 * O              10      0.00000             -0.00000             -0.97163         *
 * S               1      0.00000              0.00000             -0.00008         *
 * S               2      0.00000             -0.00000             -0.00008         *
 * V               1     -0.00000             -0.00000              0.26187         *
 * V               2     -0.00000              0.00000             -0.26096         *
 *                                                                                  *
 ************************************************************************************
 
 ***************** Stress Tensor *****************
 *                                               *
 *          Cartesian components (GPa)           *
 * --------------------------------------------- *
 *             x             y             z     *
 *                                               *
 *  x    -10.263981      0.000002      0.000007  *
 *  y      0.000002    -10.263969      0.000003  *
 *  z      0.000007      0.000003     -7.578110  *
 *                                               *
 *  Pressure:    9.3687                          *
 *                                               *
 *************************************************
 BFGS: finished iteration     0 with enthalpy= -8.90054507E+003 eV
  
 +-----------+-----------------+-----------------+------------+-----+ <-- BFGS
 | Parameter |      value      |    tolerance    |    units   | OK? | <-- BFGS
 +-----------+-----------------+-----------------+------------+-----+ <-- BFGS
 |  dE/ion   |   0.000000E+000 |   2.000000E-005 |         eV | No  | <-- BFGS
 |  |F|max   |   2.966808E+000 |   5.000000E-002 |       eV/A | No  | <-- BFGS
 |  |dR|max  |   0.000000E+000 |   1.000000E-003 |          A | No  | <-- BFGS
 |   Smax    |   1.026398E+001 |   1.000000E-001 |        GPa | No  | <-- BFGS
 +-----------+-----------------+-----------------+------------+-----+ <-- BFGS
  

================================================================================
 Starting BFGS iteration          1 ...
================================================================================
  
 +------------+-------------+-------------+-----------------+ <-- min BFGS
 |    Step    |   lambda    |   F.delta'  |    enthalpy     | <-- min BFGS
 +------------+-------------+-------------+-----------------+ <-- min BFGS
 |  previous  |    0.000000 |    1.406389 |    -8900.545074 | <-- min BFGS
 +------------+-------------+-------------+-----------------+ <-- min BFGS
  

--------------------------------------------------------------------------------
 BFGS: starting iteration         1 with trial guess (lambda=  1.000000)
--------------------------------------------------------------------------------
 
+---------------- MEMORY AND SCRATCH DISK ESTIMATES PER PROCESS --------------+
|                                                     Memory          Disk    |
| Model and support data                              639.0 MB         0.0 MB |
| Electronic energy minimisation requirements         214.9 MB         0.0 MB |
| Geometry minimisation requirements                  294.6 MB         0.0 MB |
|                                               ----------------------------- |
| Approx. total storage required per process         1148.5 MB         0.0 MB |
|                                                                             |
| Requirements will fluctuate during execution and may exceed these estimates |
+-----------------------------------------------------------------------------+
 
 
                           -------------------------------
                                      Unit Cell
                           -------------------------------
        Real Lattice(A)              Reciprocal Lattice(1/A)
   6.3038419  -0.0000000  -0.0000000        0.9967232   0.0000000   0.0000000
  -0.0000000   6.3038418  -0.0000000        0.0000000   0.9967232   0.0000000
  -0.0000000  -0.0000000   4.1217186        0.0000000   0.0000000   1.5244091
 
                       Lattice parameters(A)       Cell Angles
                    a =    6.303842          alpha =   90.000000
                    b =    6.303842          beta  =   90.000001
                    c =    4.121719          gamma =   90.000000
 
                Current cell volume =  163.790590 A**3
 
                           -------------------------------
                                     Cell Contents
                           -------------------------------
 
            xxxxxxxxxxxxxxxxxxxxxxxxxxxxxxxxxxxxxxxxxxxxxxxxxxxxxxxxxxxxxxxxx
            x  Element         Atom        Fractional coordinates of atoms  x
            x                 Number           u          v          w      x
            x---------------------------------------------------------------x
            x  O                 1         0.000000   0.500000   0.220994   x
            x  O                 2         0.815188   0.038222   0.283797   x
            x  O                 3         0.461778   0.315188   0.283797   x
            x  O                 4         0.538222   0.684812   0.283797   x
            x  O                 5         0.184812   0.961778   0.283797   x
            x  O                 6         0.038223   0.184813   0.716203   x
            x  O                 7         0.684813   0.461777   0.716203   x
            x  O                 8         0.315187   0.538223   0.716203   x
            x  O                 9         0.961777   0.815187   0.716203   x
            x  O                10         0.500000  -0.000000   0.779005   x
            x  S                 1         0.000000   0.000000   0.500000   x
            x  S                 2         0.500000   0.500000   0.500000   x
            x  V                 1         0.500000  -0.000000   0.382668   x
            x  V                 2        -0.000000   0.500000   0.617333   x
            xxxxxxxxxxxxxxxxxxxxxxxxxxxxxxxxxxxxxxxxxxxxxxxxxxxxxxxxxxxxxxxxx
 
 
------------------------------------------------------------------------ <-- SCF
SCF loop      Energy           Fermi           Energy gain       Timer   <-- SCF
                               energy          per atom          (sec)   <-- SCF
------------------------------------------------------------------------ <-- SCF
Initial  -8.89963155E+003  0.00000000E+000                       238.57  <-- SCF
      1  -8.90220196E+003  2.50205703E+000   1.83600670E-001     252.27  <-- SCF
      2  -8.90222629E+003  2.50105233E+000   1.73777405E-003     268.61  <-- SCF
      3  -8.90142239E+003  3.79956756E+000  -5.74213739E-002     282.80  <-- SCF
      4  -8.90177749E+003  3.19706927E+000   2.53643798E-002     297.93  <-- SCF
      5  -8.90064875E+003  3.35032990E+000  -8.06239757E-002     312.07  <-- SCF
      6  -8.90090658E+003  3.51799524E+000   1.84165583E-002     326.58  <-- SCF
      7  -8.90086104E+003  3.51554561E+000  -3.25340299E-003     340.83  <-- SCF
      8  -8.90092730E+003  3.51160934E+000   4.73295008E-003     355.76  <-- SCF
      9  -8.90086317E+003  3.51416900E+000  -4.58023519E-003     370.00  <-- SCF
     10  -8.90090645E+003  3.51655162E+000   3.09079990E-003     384.04  <-- SCF
     11  -8.90090690E+003  3.51604510E+000   3.21404091E-005     396.10  <-- SCF
     12  -8.90090725E+003  3.51655521E+000   2.50708172E-005     405.53  <-- SCF
     13  -8.90090741E+003  3.51659627E+000   1.16692850E-005     414.68  <-- SCF
     14  -8.90090741E+003  3.51640862E+000  -2.70184117E-007     423.87  <-- SCF
     15  -8.90090741E+003  3.51636142E+000   2.42588974E-007     433.04  <-- SCF
------------------------------------------------------------------------ <-- SCF
 
Final energy, E             =  -8900.690925716     eV
Final free energy (E-TS)    =  -8900.907409517     eV
(energies not corrected for finite basis set)
 
NB est. 0K energy (E-0.5TS)      =  -8900.799167616     eV
 
 
 ******************************** Constrained Forces ********************************
 *                                                                                  *
 *                           Cartesian components (eV/A)                            *
 * -------------------------------------------------------------------------------- *
 *                         x                    y                    z              *
 *                                                                                  *
 * O               1     -0.00000              0.00000              1.11931         *
 * O               2     -1.61773              0.12200             -0.44743         *
 * O               3     -0.12200             -1.61773             -0.44743         *
 * O               4      0.12200              1.61773             -0.44743         *
 * O               5      1.61773             -0.12200             -0.44743         *
 * O               6      0.12194              1.61765              0.44739         *
 * O               7      1.61765             -0.12194              0.44739         *
 * O               8     -1.61765              0.12194              0.44739         *
 * O               9     -0.12194             -1.61765              0.44739         *
 * O              10     -0.00000              0.00000             -1.11913         *
 * S               1     -0.00000             -0.00000              0.00014         *
 * S               2     -0.00000              0.00000              0.00014         *
 * V               1      0.00000             -0.00000              0.46390         *
 * V               2      0.00000             -0.00000             -0.46421         *
 *                                                                                  *
 ************************************************************************************
 
 ***************** Stress Tensor *****************
 *                                               *
 *          Cartesian components (GPa)           *
 * --------------------------------------------- *
 *             x             y             z     *
 *                                               *
 *  x     -4.391010     -0.000001     -0.000002  *
 *  y     -0.000001     -4.391017     -0.000001  *
 *  z     -0.000002     -0.000001     -1.527171  *
 *                                               *
 *  Pressure:    3.4364                          *
 *                                               *
 *************************************************
  
 +------------+-------------+-------------+-----------------+ <-- min BFGS
 |    Step    |   lambda    |   F.delta'  |    enthalpy     | <-- min BFGS
 +------------+-------------+-------------+-----------------+ <-- min BFGS
 |  previous  |    0.000000 |    1.406389 |    -8900.545074 | <-- min BFGS
 | trial step |    1.000000 |    0.715890 |    -8900.907410 | <-- min BFGS
 +------------+-------------+-------------+-----------------+ <-- min BFGS
  

--------------------------------------------------------------------------------
 BFGS: improving iteration         1 with line minimization (lambda=  2.036771)
--------------------------------------------------------------------------------
 
+---------------- MEMORY AND SCRATCH DISK ESTIMATES PER PROCESS --------------+
|                                                     Memory          Disk    |
| Model and support data                              640.9 MB         0.0 MB |
| Electronic energy minimisation requirements         218.3 MB         0.0 MB |
| Geometry minimisation requirements                  299.4 MB         0.0 MB |
|                                               ----------------------------- |
| Approx. total storage required per process         1158.6 MB         0.0 MB |
|                                                                             |
| Requirements will fluctuate during execution and may exceed these estimates |
+-----------------------------------------------------------------------------+
 
 
                           -------------------------------
                                      Unit Cell
                           -------------------------------
        Real Lattice(A)              Reciprocal Lattice(1/A)
   6.3482590  -0.0000000  -0.0000001        0.9897494   0.0000000   0.0000000
  -0.0000000   6.3482589  -0.0000000        0.0000000   0.9897494   0.0000000
  -0.0000000  -0.0000000   4.1431989        0.0000000   0.0000000   1.5165058
 
                       Lattice parameters(A)       Cell Angles
                    a =    6.348259          alpha =   90.000001
                    b =    6.348259          beta  =   90.000001
                    c =    4.143199          gamma =   90.000000
 
                Current cell volume =  166.972543 A**3
 
                           -------------------------------
                                     Cell Contents
                           -------------------------------
 
            xxxxxxxxxxxxxxxxxxxxxxxxxxxxxxxxxxxxxxxxxxxxxxxxxxxxxxxxxxxxxxxxx
            x  Element         Atom        Fractional coordinates of atoms  x
            x                 Number           u          v          w      x
            x---------------------------------------------------------------x
            x  O                 1         0.000000   0.500000   0.222025   x
            x  O                 2         0.813308   0.038453   0.282550   x
            x  O                 3         0.461547   0.313308   0.282550   x
            x  O                 4         0.538453   0.686692   0.282550   x
            x  O                 5         0.186692   0.961547   0.282550   x
            x  O                 6         0.038454   0.186693   0.717450   x
            x  O                 7         0.686693   0.461546   0.717450   x
            x  O                 8         0.313307   0.538454   0.717450   x
            x  O                 9         0.961546   0.813307   0.717450   x
            x  O                10         0.500000  -0.000000   0.777974   x
            x  S                 1         0.000000   0.000000   0.500000   x
            x  S                 2         0.500000   0.500000   0.500000   x
            x  V                 1         0.500000  -0.000000   0.382946   x
            x  V                 2        -0.000000   0.500000   0.617056   x
            xxxxxxxxxxxxxxxxxxxxxxxxxxxxxxxxxxxxxxxxxxxxxxxxxxxxxxxxxxxxxxxxx
 
 
------------------------------------------------------------------------ <-- SCF
SCF loop      Energy           Fermi           Energy gain       Timer   <-- SCF
                               energy          per atom          (sec)   <-- SCF
------------------------------------------------------------------------ <-- SCF
Initial  -8.89968513E+003  0.00000000E+000                       459.05  <-- SCF
      1  -8.90245988E+003  2.30691892E+000   1.98196534E-001     472.61  <-- SCF
      2  -8.90248852E+003  2.30561858E+000   2.04563079E-003     489.46  <-- SCF
      3  -8.90158406E+003  3.67987349E+000  -6.46039767E-002     504.19  <-- SCF
      4  -8.90111537E+003  3.17372605E+000  -3.34778841E-002     518.97  <-- SCF
      5  -8.90159473E+003  3.20227435E+000   3.42395597E-002     534.10  <-- SCF
      6  -8.90071359E+003  3.37068929E+000  -6.29383346E-002     548.62  <-- SCF
      7  -8.90104393E+003  3.35854332E+000   2.35960166E-002     563.89  <-- SCF
      8  -8.90104917E+003  3.35628220E+000   3.74192243E-004     579.27  <-- SCF
      9  -8.90104442E+003  3.36026766E+000  -3.39703981E-004     592.95  <-- SCF
     10  -8.90104817E+003  3.36172160E+000   2.68376172E-004     605.69  <-- SCF
     11  -8.90104867E+003  3.36172880E+000   3.53915466E-005     615.27  <-- SCF
     12  -8.90104859E+003  3.36172133E+000  -5.81133284E-006     624.72  <-- SCF
     13  -8.90104864E+003  3.36176410E+000   3.78181353E-006     634.14  <-- SCF
------------------------------------------------------------------------ <-- SCF
 
Final energy, E             =  -8900.830235351     eV
Final free energy (E-TS)    =  -8901.048640226     eV
(energies not corrected for finite basis set)
 
NB est. 0K energy (E-0.5TS)      =  -8900.939437788     eV
 
 
 ******************************** Constrained Forces ********************************
 *                                                                                  *
 *                           Cartesian components (eV/A)                            *
 * -------------------------------------------------------------------------------- *
 *                         x                    y                    z              *
 *                                                                                  *
 * O               1     -0.00000             -0.00000              1.26390         *
 * O               2     -0.64631             -0.06286              0.19424         *
 * O               3      0.06286             -0.64631              0.19424         *
 * O               4     -0.06286              0.64631              0.19424         *
 * O               5      0.64631              0.06286              0.19424         *
 * O               6     -0.06243              0.64658             -0.19428         *
 * O               7      0.64657              0.06244             -0.19428         *
 * O               8     -0.64657             -0.06244             -0.19428         *
 * O               9      0.06244             -0.64658             -0.19428         *
 * O              10     -0.00000              0.00000             -1.26342         *
 * S               1     -0.00000             -0.00000             -0.00032         *
 * S               2     -0.00000              0.00000             -0.00032         *
 * V               1      0.00000             -0.00000              0.66154         *
 * V               2      0.00000              0.00000             -0.66124         *
 *                                                                                  *
 ************************************************************************************
 
 ***************** Stress Tensor *****************
 *                                               *
 *          Cartesian components (GPa)           *
 * --------------------------------------------- *
 *             x             y             z     *
 *                                               *
 *  x      0.883037     -0.000002     -0.000004  *
 *  y     -0.000002      0.883024     -0.000002  *
 *  z     -0.000004     -0.000002      3.788177  *
 *                                               *
 *  Pressure:   -1.8514                          *
 *                                               *
 *************************************************
  
 +------------+-------------+-------------+-----------------+ <-- min BFGS
 |    Step    |   lambda    |   F.delta'  |    enthalpy     | <-- min BFGS
 +------------+-------------+-------------+-----------------+ <-- min BFGS
 |  previous  |    0.000000 |    1.406389 |    -8900.545074 | <-- min BFGS
 | trial step |    1.000000 |    0.715890 |    -8900.907410 | <-- min BFGS
 |  line step |    2.036771 |    0.089532 |    -8901.048640 | <-- min BFGS
 +------------+-------------+-------------+-----------------+ <-- min BFGS
  
 BFGS: finished iteration     1 with enthalpy= -8.90104864E+003 eV
  
 +-----------+-----------------+-----------------+------------+-----+ <-- BFGS
 | Parameter |      value      |    tolerance    |    units   | OK? | <-- BFGS
 +-----------+-----------------+-----------------+------------+-----+ <-- BFGS
 |  dE/ion   |   3.596904E-002 |   2.000000E-005 |         eV | No  | <-- BFGS
 |  |F|max   |   1.263903E+000 |   5.000000E-002 |       eV/A | No  | <-- BFGS
 |  |dR|max  |   2.570738E-002 |   1.000000E-003 |          A | No  | <-- BFGS
 |   Smax    |   3.788177E+000 |   1.000000E-001 |        GPa | No  | <-- BFGS
 +-----------+-----------------+-----------------+------------+-----+ <-- BFGS
  

================================================================================
 Starting BFGS iteration          2 ...
================================================================================
  
 +------------+-------------+-------------+-----------------+ <-- min BFGS
 |    Step    |   lambda    |   F.delta'  |    enthalpy     | <-- min BFGS
 +------------+-------------+-------------+-----------------+ <-- min BFGS
 |  previous  |    0.000000 |    0.498456 |    -8901.048640 | <-- min BFGS
 +------------+-------------+-------------+-----------------+ <-- min BFGS
  

--------------------------------------------------------------------------------
 BFGS: starting iteration         2 with trial guess (lambda=  1.000000)
--------------------------------------------------------------------------------
 
                           -------------------------------
                                      Unit Cell
                           -------------------------------
        Real Lattice(A)              Reciprocal Lattice(1/A)
   6.3515502  -0.0000000  -0.0000000        0.9892365   0.0000000   0.0000000
  -0.0000000   6.3515502  -0.0000000        0.0000000   0.9892365   0.0000000
  -0.0000000  -0.0000000   4.1353691        0.0000000   0.0000000   1.5193771
 
                       Lattice parameters(A)       Cell Angles
                    a =    6.351550          alpha =   90.000000
                    b =    6.351550          beta  =   90.000001
                    c =    4.135369          gamma =   90.000000
 
                Current cell volume =  166.829846 A**3
 
                           -------------------------------
                                     Cell Contents
                           -------------------------------
 
            xxxxxxxxxxxxxxxxxxxxxxxxxxxxxxxxxxxxxxxxxxxxxxxxxxxxxxxxxxxxxxxxx
            x  Element         Atom        Fractional coordinates of atoms  x
            x                 Number           u          v          w      x
            x---------------------------------------------------------------x
            x  O                 1         0.000000   0.500000   0.223590   x
            x  O                 2         0.812529   0.038446   0.282559   x
            x  O                 3         0.461554   0.312529   0.282559   x
            x  O                 4         0.538446   0.687471   0.282559   x
            x  O                 5         0.187471   0.961554   0.282559   x
            x  O                 6         0.038446   0.187472   0.717441   x
            x  O                 7         0.687472   0.461554   0.717441   x
            x  O                 8         0.312528   0.538446   0.717441   x
            x  O                 9         0.961554   0.812528   0.717441   x
            x  O                10         0.500000  -0.000000   0.776409   x
            x  S                 1         0.000000   0.000000   0.499999   x
            x  S                 2         0.500000   0.500000   0.499999   x
            x  V                 1         0.500000  -0.000000   0.383723   x
            x  V                 2        -0.000000   0.500000   0.616280   x
            xxxxxxxxxxxxxxxxxxxxxxxxxxxxxxxxxxxxxxxxxxxxxxxxxxxxxxxxxxxxxxxxx
 
 
------------------------------------------------------------------------ <-- SCF
SCF loop      Energy           Fermi           Energy gain       Timer   <-- SCF
                               energy          per atom          (sec)   <-- SCF
------------------------------------------------------------------------ <-- SCF
Initial  -8.90070146E+003  0.00000000E+000                       660.06  <-- SCF
      1  -8.90121359E+003  3.23119788E+000   3.65812879E-002     673.16  <-- SCF
      2  -8.90121582E+003  3.23112457E+000   1.59075847E-004     690.31  <-- SCF
      3  -8.90123704E+003  3.45919071E+000   1.51545746E-003     705.02  <-- SCF
      4  -8.90096913E+003  3.44938768E+000  -1.91364931E-002     719.55  <-- SCF
      5  -8.90105779E+003  3.35342966E+000   6.33306623E-003     733.90  <-- SCF
      6  -8.90109193E+003  3.40930584E+000   2.43830953E-003     748.24  <-- SCF
      7  -8.90109137E+003  3.40612322E+000  -3.94039538E-005     763.54  <-- SCF
      8  -8.90109136E+003  3.40648573E+000  -6.80190150E-007     773.08  <-- SCF
      9  -8.90109137E+003  3.40805357E+000   5.28208712E-007     782.50  <-- SCF
------------------------------------------------------------------------ <-- SCF
 
Final energy, E             =  -8900.874075980     eV
Final free energy (E-TS)    =  -8901.091372103     eV
(energies not corrected for finite basis set)
 
NB est. 0K energy (E-0.5TS)      =  -8900.982724041     eV
 
 
 ******************************** Constrained Forces ********************************
 *                                                                                  *
 *                           Cartesian components (eV/A)                            *
 * -------------------------------------------------------------------------------- *
 *                         x                    y                    z              *
 *                                                                                  *
 * O               1     -0.00000              0.00000              0.78866         *
 * O               2     -0.44758             -0.08454              0.25978         *
 * O               3      0.08454             -0.44758              0.25978         *
 * O               4     -0.08454              0.44757              0.25978         *
 * O               5      0.44758              0.08454              0.25978         *
 * O               6     -0.08396              0.44809             -0.26011         *
 * O               7      0.44809              0.08396             -0.26011         *
 * O               8     -0.44809             -0.08396             -0.26011         *
 * O               9      0.08396             -0.44809             -0.26011         *
 * O              10     -0.00000             -0.00000             -0.79219         *
 * S               1     -0.00000             -0.00000              0.00017         *
 * S               2     -0.00000              0.00000              0.00017         *
 * V               1      0.00000             -0.00000              0.23741         *
 * V               2      0.00000             -0.00000             -0.23290         *
 *                                                                                  *
 ************************************************************************************
 
 ***************** Stress Tensor *****************
 *                                               *
 *          Cartesian components (GPa)           *
 * --------------------------------------------- *
 *             x             y             z     *
 *                                               *
 *  x      1.335693     -0.000001     -0.000002  *
 *  y     -0.000001      1.335686     -0.000001  *
 *  z     -0.000002     -0.000001      2.460822  *
 *                                               *
 *  Pressure:   -1.7107                          *
 *                                               *
 *************************************************
  
 +------------+-------------+-------------+-----------------+ <-- min BFGS
 |    Step    |   lambda    |   F.delta'  |    enthalpy     | <-- min BFGS
 +------------+-------------+-------------+-----------------+ <-- min BFGS
 |  previous  |    0.000000 |    0.498456 |    -8901.048640 | <-- min BFGS
 | trial step |    1.000000 |    0.311384 |    -8901.091372 | <-- min BFGS
 +------------+-------------+-------------+-----------------+ <-- min BFGS
  

--------------------------------------------------------------------------------
 BFGS: improving iteration         2 with line minimization (lambda=  2.664514)
--------------------------------------------------------------------------------
 
                           -------------------------------
                                      Unit Cell
                           -------------------------------
        Real Lattice(A)              Reciprocal Lattice(1/A)
   6.3570284   0.0000000  -0.0000000        0.9883840  -0.0000000   0.0000000
   0.0000000   6.3570284  -0.0000000       -0.0000000   0.9883840   0.0000000
  -0.0000000  -0.0000000   4.1223363        0.0000000   0.0000000   1.5241807
 
                       Lattice parameters(A)       Cell Angles
                    a =    6.357028          alpha =   90.000000
                    b =    6.357028          beta  =   90.000000
                    c =    4.122336          gamma =   90.000000
 
                Current cell volume =  166.591073 A**3
 
                           -------------------------------
                                     Cell Contents
                           -------------------------------
 
            xxxxxxxxxxxxxxxxxxxxxxxxxxxxxxxxxxxxxxxxxxxxxxxxxxxxxxxxxxxxxxxxx
            x  Element         Atom        Fractional coordinates of atoms  x
            x                 Number           u          v          w      x
            x---------------------------------------------------------------x
            x  O                 1         0.000000   0.500000   0.226197   x
            x  O                 2         0.811232   0.038433   0.282573   x
            x  O                 3         0.461567   0.311232   0.282573   x
            x  O                 4         0.538433   0.688768   0.282573   x
            x  O                 5         0.188768   0.961567   0.282573   x
            x  O                 6         0.038434   0.188769   0.717426   x
            x  O                 7         0.688769   0.461566   0.717426   x
            x  O                 8         0.311231   0.538434   0.717426   x
            x  O                 9         0.961566   0.811231   0.717426   x
            x  O                10         0.500000  -0.000000   0.773803   x
            x  S                 1         0.000000   0.000000   0.499999   x
            x  S                 2         0.500000   0.500000   0.499999   x
            x  V                 1         0.500000  -0.000000   0.385015   x
            x  V                 2        -0.000000   0.500000   0.614988   x
            xxxxxxxxxxxxxxxxxxxxxxxxxxxxxxxxxxxxxxxxxxxxxxxxxxxxxxxxxxxxxxxxx
 
 
------------------------------------------------------------------------ <-- SCF
SCF loop      Energy           Fermi           Energy gain       Timer   <-- SCF
                               energy          per atom          (sec)   <-- SCF
------------------------------------------------------------------------ <-- SCF
Initial  -8.90042387E+003  0.00000000E+000                       808.64  <-- SCF
      1  -8.90145613E+003  3.18877467E+000   7.37322115E-002     821.70  <-- SCF
      2  -8.90146236E+003  3.18856806E+000   4.45611641E-004     839.28  <-- SCF
      3  -8.90160205E+003  3.52793490E+000   9.97768335E-003     853.88  <-- SCF
      4  -8.90092304E+003  3.54572512E+000  -4.85009167E-002     868.27  <-- SCF
      5  -8.90106052E+003  3.39852755E+000   9.82009111E-003     882.65  <-- SCF
      6  -8.90110913E+003  3.48733062E+000   3.47219368E-003     897.22  <-- SCF
      7  -8.90111574E+003  3.48321183E+000   4.72396104E-004     912.75  <-- SCF
      8  -8.90111571E+003  3.48360004E+000  -2.40007484E-006     925.36  <-- SCF
      9  -8.90111596E+003  3.48499755E+000   1.79215971E-005     935.30  <-- SCF
     10  -8.90111601E+003  3.48619289E+000   3.13483668E-006     944.76  <-- SCF
     11  -8.90111605E+003  3.48670741E+000   3.35905544E-006     954.14  <-- SCF
------------------------------------------------------------------------ <-- SCF
 
Final energy, E             =  -8900.900045342     eV
Final free energy (E-TS)    =  -8901.116052322     eV
(energies not corrected for finite basis set)
 
NB est. 0K energy (E-0.5TS)      =  -8901.008048832     eV
 
 
 ******************************** Constrained Forces ********************************
 *                                                                                  *
 *                           Cartesian components (eV/A)                            *
 * -------------------------------------------------------------------------------- *
 *                         x                    y                    z              *
 *                                                                                  *
 * O               1     -0.00000              0.00000             -0.12367         *
 * O               2     -0.10572             -0.11742              0.35319         *
 * O               3      0.11742             -0.10572              0.35319         *
 * O               4     -0.11742              0.10572              0.35319         *
 * O               5      0.10572              0.11742              0.35319         *
 * O               6     -0.11642              0.10667             -0.35423         *
 * O               7      0.10667              0.11642             -0.35423         *
 * O               8     -0.10667             -0.11642             -0.35423         *
 * O               9      0.11642             -0.10667             -0.35423         *
 * O              10     -0.00000             -0.00000              0.12207         *
 * S               1     -0.00000              0.00000              0.00068         *
 * S               2      0.00000             -0.00000              0.00068         *
 * V               1      0.00000              0.00000             -0.58019         *
 * V               2      0.00000             -0.00000              0.58462         *
 *                                                                                  *
 ************************************************************************************
 
 ***************** Stress Tensor *****************
 *                                               *
 *          Cartesian components (GPa)           *
 * --------------------------------------------- *
 *             x             y             z     *
 *                                               *
 *  x      2.102731      0.000000      0.000000  *
 *  y      0.000000      2.102734      0.000001  *
 *  z      0.000000      0.000001     -0.009641  *
 *                                               *
 *  Pressure:   -1.3986                          *
 *                                               *
 *************************************************
  
 +------------+-------------+-------------+-----------------+ <-- min BFGS
 |    Step    |   lambda    |   F.delta'  |    enthalpy     | <-- min BFGS
 +------------+-------------+-------------+-----------------+ <-- min BFGS
 |  previous  |    0.000000 |    0.498456 |    -8901.048640 | <-- min BFGS
 | trial step |    1.000000 |    0.311384 |    -8901.091372 | <-- min BFGS
 |  line step |    2.664514 |   -0.030574 |    -8901.116052 | <-- min BFGS
 +------------+-------------+-------------+-----------------+ <-- min BFGS
  
 BFGS: finished iteration     2 with enthalpy= -8.90111605E+003 eV
  
 +-----------+-----------------+-----------------+------------+-----+ <-- BFGS
 | Parameter |      value      |    tolerance    |    units   | OK? | <-- BFGS
 +-----------+-----------------+-----------------+------------+-----+ <-- BFGS
 |  dE/ion   |   4.815150E-003 |   2.000000E-005 |         eV | No  | <-- BFGS
 |  |F|max   |   5.846240E-001 |   5.000000E-002 |       eV/A | No  | <-- BFGS
 |  |dR|max  |   1.720046E-002 |   1.000000E-003 |          A | No  | <-- BFGS
 |   Smax    |   2.102734E+000 |   1.000000E-001 |        GPa | No  | <-- BFGS
 +-----------+-----------------+-----------------+------------+-----+ <-- BFGS
  
 BFGS: WARNING - Geometry optimization failed to converge after          2 steps

================================================================================
 BFGS: Final Configuration:
================================================================================
 
                           -------------------------------
                                      Unit Cell
                           -------------------------------
        Real Lattice(A)              Reciprocal Lattice(1/A)
   6.3570284   0.0000000  -0.0000000        0.9883840  -0.0000000   0.0000000
   0.0000000   6.3570284  -0.0000000       -0.0000000   0.9883840   0.0000000
  -0.0000000  -0.0000000   4.1223363        0.0000000   0.0000000   1.5241807
 
                       Lattice parameters(A)       Cell Angles
                    a =    6.357028          alpha =   90.000000
                    b =    6.357028          beta  =   90.000000
                    c =    4.122336          gamma =   90.000000
 
                Current cell volume =  166.591073 A**3
 
                           -------------------------------
                                     Cell Contents
                           -------------------------------
 
            xxxxxxxxxxxxxxxxxxxxxxxxxxxxxxxxxxxxxxxxxxxxxxxxxxxxxxxxxxxxxxxxx
            x  Element         Atom        Fractional coordinates of atoms  x
            x                 Number           u          v          w      x
            x---------------------------------------------------------------x
            x  O                 1         0.000000   0.500000   0.226197   x
            x  O                 2         0.811232   0.038433   0.282573   x
            x  O                 3         0.461567   0.311232   0.282573   x
            x  O                 4         0.538433   0.688768   0.282573   x
            x  O                 5         0.188768   0.961567   0.282573   x
            x  O                 6         0.038434   0.188769   0.717426   x
            x  O                 7         0.688769   0.461566   0.717426   x
            x  O                 8         0.311231   0.538434   0.717426   x
            x  O                 9         0.961566   0.811231   0.717426   x
            x  O                10         0.500000  -0.000000   0.773803   x
            x  S                 1         0.000000   0.000000   0.499999   x
            x  S                 2         0.500000   0.500000   0.499999   x
            x  V                 1         0.500000  -0.000000   0.385015   x
            x  V                 2        -0.000000   0.500000   0.614988   x
            xxxxxxxxxxxxxxxxxxxxxxxxxxxxxxxxxxxxxxxxxxxxxxxxxxxxxxxxxxxxxxxxx
 
 
 BFGS: Final Enthalpy     = -8.90111605E+003 eV
 BFGS: Final <frequency>  unchanged from initial value
 BFGS: Final bulk modulus =    1460.31630 GPa
  
  **********************************************************
  *** There were at least     2 warnings during this run ***
  *** => please check the whole of this file carefully!  ***
  **********************************************************
 
 ******************* Unconstrained Forces *******************
 *                                                          *
 *               Cartesian components (eV/A)                *
 * -------------------------------------------------------- *
 *                         x            y            z      *
 *                                                          *
 * O               1     -0.00000      0.00000     -0.12367 *
 * O               2     -0.10572     -0.11742      0.35319 *
 * O               3      0.11742     -0.10572      0.35319 *
 * O               4     -0.11742      0.10572      0.35319 *
 * O               5      0.10572      0.11742      0.35319 *
 * O               6     -0.11642      0.10667     -0.35423 *
 * O               7      0.10667      0.11642     -0.35423 *
 * O               8     -0.10667     -0.11642     -0.35423 *
 * O               9      0.11642     -0.10667     -0.35423 *
 * O              10     -0.00000     -0.00000      0.12207 *
 * S               1     -0.00000      0.00000      0.00068 *
 * S               2      0.00000     -0.00000      0.00068 *
 * V               1      0.00000      0.00000     -0.58019 *
 * V               2      0.00000     -0.00000      0.58462 *
 *                                                          *
 ************************************************************
 
 ******************************** Constrained Forces ********************************
 *                                                                                  *
 *                           Cartesian components (eV/A)                            *
 * -------------------------------------------------------------------------------- *
 *                         x                    y                    z              *
 *                                                                                  *
 * O               1     -0.00000              0.00000             -0.12367         *
 * O               2     -0.10572             -0.11742              0.35319         *
 * O               3      0.11742             -0.10572              0.35319         *
 * O               4     -0.11742              0.10572              0.35319         *
 * O               5      0.10572              0.11742              0.35319         *
 * O               6     -0.11642              0.10667             -0.35423         *
 * O               7      0.10667              0.11642             -0.35423         *
 * O               8     -0.10667             -0.11642             -0.35423         *
 * O               9      0.11642             -0.10667             -0.35423         *
 * O              10     -0.00000             -0.00000              0.12207         *
 * S               1     -0.00000              0.00000              0.00068         *
 * S               2      0.00000             -0.00000              0.00068         *
 * V               1      0.00000              0.00000             -0.58019         *
 * V               2      0.00000             -0.00000              0.58462         *
 *                                                                                  *
 ************************************************************************************
 
 ***************** Stress Tensor *****************
 *                                               *
 *          Cartesian components (GPa)           *
 * --------------------------------------------- *
 *             x             y             z     *
 *                                               *
 *  x      2.102731      0.000000      0.000000  *
 *  y      0.000000      2.102734      0.000001  *
 *  z      0.000000      0.000001     -0.009641  *
 *                                               *
 *  Pressure:   -1.3986                          *
 *                                               *
 *************************************************
 
 Pseudo atomic calculation performed for O 2s2 2p4
 
 Converged in 12 iterations to a total energy of -431.3437 eV
 
 
 Pseudo atomic calculation performed for S 3s2 3p4
 
 Converged in 19 iterations to a total energy of -299.4518 eV
 
 
 Pseudo atomic calculation performed for V 3s2 3p6 3d3 4s2
 
 Converged in 33 iterations to a total energy of -1945.7424 eV
 
Charge spilling parameter for spin component 1 = 1.02%
 
     Atomic Populations (Mulliken)
     -----------------------------
Species          Ion     s      p      d      f     Total  Charge (e)
=====================================================================
  O               1     1.89   4.51   0.00   0.00   6.41    -0.41
  O               2     1.86   4.92   0.00   0.00   6.78    -0.78
  O               3     1.86   4.92   0.00   0.00   6.78    -0.78
  O               4     1.86   4.92   0.00   0.00   6.78    -0.78
  O               5     1.86   4.92   0.00   0.00   6.78    -0.78
  O               6     1.87   4.92   0.00   0.00   6.78    -0.78
  O               7     1.87   4.92   0.00   0.00   6.78    -0.78
  O               8     1.87   4.92   0.00   0.00   6.78    -0.78
  O               9     1.87   4.92   0.00   0.00   6.78    -0.78
  O              10     1.89   4.51   0.00   0.00   6.40    -0.40
  S               1     1.20   2.56   0.00   0.00   3.76     2.24
  S               2     1.20   2.56   0.00   0.00   3.76     2.24
  V               1     2.18   6.21   3.31   0.00  11.69     1.31
  V               2     2.18   6.21   3.31   0.00  11.69     1.31
=====================================================================
 
                 Bond                   Population      Length (A)
======================================================================
              O 2  -- S 1                    0.57        1.51758
              O 5  -- S 1                    0.57        1.51758
              O 4  -- S 2                    0.57        1.51758
              O 3  -- S 2                    0.57        1.51758
              O 8  -- S 2                    0.57        1.51760
              O 9  -- S 1                    0.57        1.51760
              O 6  -- S 1                    0.57        1.51760
              O 7  -- S 2                    0.57        1.51760
              O 10 -- V 1                    0.84        1.60271
              O 1  -- V 2                    0.84        1.60273
              O 9  -- V 2                    0.29        2.03777
              O 8  -- V 2                    0.29        2.03777
              O 7  -- V 2                    0.29        2.03777
              O 6  -- V 2                    0.29        2.03777
              O 5  -- V 1                    0.29        2.03778
              O 4  -- V 1                    0.29        2.03778
              O 3  -- V 1                    0.29        2.03778
              O 2  -- V 1                    0.29        2.03778
              O 2  -- O 5                   -0.15        2.44924
              O 3  -- O 4                   -0.15        2.44924
              O 6  -- O 9                   -0.15        2.44926
              O 7  -- O 8                   -0.15        2.44926
              O 2  -- O 9                   -0.16        2.49256
              O 4  -- O 8                   -0.16        2.49256
              O 3  -- O 7                   -0.16        2.49256
              O 5  -- O 6                   -0.16        2.49256
              O 5  -- O 9                   -0.16        2.49257
              O 2  -- O 6                   -0.16        2.49257
              O 4  -- O 7                   -0.16        2.49257
              O 3  -- O 8                   -0.16        2.49257
              O 8  -- O 9                   -0.02        2.81928
              O 6  -- O 7                   -0.02        2.81928
              O 6  -- O 8                   -0.02        2.81928
              O 7  -- O 9                   -0.02        2.81928
              O 3  -- O 5                   -0.02        2.81929
              O 4  -- O 5                   -0.02        2.81929
              O 2  -- O 3                   -0.02        2.81929
              O 2  -- O 4                   -0.02        2.81929
              O 1  -- O 8                   -0.02        2.84163
              O 1  -- O 7                   -0.02        2.84163
              O 1  -- O 9                   -0.02        2.84163
              O 1  -- O 6                   -0.02        2.84163
              O 3  -- O 10                  -0.02        2.84163
              O 5  -- O 10                  -0.02        2.84163
              O 4  -- O 10                  -0.02        2.84163
              O 2  -- O 10                  -0.02        2.84163
======================================================================
 

Writing analysis data to 18307.castep_bin

Writing model to 18307.check
 
 A BibTeX formatted list of references used in this run has been written to 
 18307.bib
 
Initialisation time =     11.83 s
Calculation time    =    974.16 s
Finalisation time   =      1.27 s
Total time          =    987.26 s
Peak Memory Use     = 1600180 kB
  
Overall parallel efficiency rating: Excellent (98%)                             
  
Data was distributed by:-
k-point (4-way); efficiency rating: Excellent (98%)                             
 +-------------------------------------------------+
 |                                                 |
 |      CCC   AA    SSS  TTTTT  EEEEE  PPPP        |
 |     C     A  A  S       T    E      P   P       |
 |     C     AAAA   SS     T    EEE    PPPP        |
 |     C     A  A     S    T    E      P           |
 |      CCC  A  A  SSS     T    EEEEE  P           |
 |                                                 |
 +-------------------------------------------------+
 |                                                 |
 | Welcome to Academic Release CASTEP version 17.21|          
 | Ab Initio Total Energy Program                  |
 |                                                 |
 | Authors:                                        |
 | M. Segall, M. Probert, C. Pickard, P. Hasnip,   |
 | S. Clark, K. Refson, J. R. Yates, M. Payne      |
 |                                                 |
 | Contributors:                                   |
 | P. Lindan, P. Haynes, J. White, V. Milman,      |
 | N. Govind, M. Gibson, P. Tulip, V. Cocula,      |
 | B. Montanari, D. Quigley, M. Glover,            |
 | L. Bernasconi, A. Perlov, M. Plummer,           |
 | E. McNellis, J. Meyer, J. Gale, D. Jochym       |
 | J. Aarons, B. Walker, R. Gillen, D. Jones       |
 | T. Green, I. J. Bush, C. J. Armstrong,          |
 | E. J. Higgins, E. L. Brown, M. S. McFly,        |
 | J. Wilkins, B-C. Shih, P. J. P. Byrne           |
 |                                                 |
 | Copyright (c) 2000 - 2017                       |
 |                                                 |
 |     Distributed under the terms of an           |
 |     Agreement between the United Kingdom        |
 |     Car-Parrinello (UKCP) Consortium,           |
 |     Daresbury Laboratory and Accelrys, Inc.     |
 |                                                 |
 | Please cite                                     |
 |                                                 |
 |     "First principles methods using CASTEP"     |
 |                                                 |
 |         Zeitschrift fuer Kristallographie       |
 |           220(5-6) pp. 567-570 (2005)           |
 |                                                 |
 | S. J. Clark, M. D. Segall, C. J. Pickard,       |
 | P. J. Hasnip, M. J. Probert, K. Refson,         |
 | M. C. Payne                                     |
 |                                                 |
 |       in all publications arising from          |
 |              your use of CASTEP                 |
 |                                                 |
 +-------------------------------------------------+
 
 
 Compiled for linux_x86_64_ifort17 on Fri, 08 Sep 2017 17:58:23 +0100
 from code version 
 056e886bd5a1+ Castep172_branch Mon, 15 May 2017 14:45:35 +0100
 Compiler: Intel Fortran 17.0.2.174; Optimisation: fast
 MATHLIBS: Intel MKL(2017.0.2) (LAPACK version 3.7.0)
 FFT Lib : mkl
 Fundamental constants values: CODATA 2010
 
 Run started: Fri, 05 Jul 2019 00:10:28 +0100
 
 Atomic calculation performed for O: 1s2 2s2 2p4
 
 Converged in 61 iterations to an ae energy of -2040.902 eV
 
   ============================================================                
   | Pseudopotential Report - Date of generation  5-07-2019   |                
   ------------------------------------------------------------                
   | Element: O Ionic charge:  6.00 Level of theory: PBE      |                
   | Atomic Solver: Koelling-Harmon                           |                
   |                                                          |                
   |               Reference Electronic Structure             |                
   |         Orbital         Occupation         Energy        |                
   |            2s              2.000           -0.881        |                
   |            2p              4.000           -0.332        |                
   |                                                          |                
   |                 Pseudopotential Definition               |                
   |        Beta     l      e      Rc     scheme   norm       |                
   |          1      0   -0.881   1.697     qc      0         |                
   |          2      0    0.250   1.697     qc      0         |                
   |          3      1   -0.332   1.697     qc      0         |                
   |          4      1    0.250   1.697     qc      0         |                
   |         loc     2    0.000   1.697     pn      0         |                
   |                                                          |                
   | Augmentation charge Rinner = 1.186                       |                
[...]
--------------------------------------------------------------------------------
 
                           -------------------------------
                                      Unit Cell
                           -------------------------------
        Real Lattice(A)              Reciprocal Lattice(1/A)
   6.3575277   0.0000538   0.0000000        0.9883064  -0.0000084   0.0000000
   0.0000538   6.3575637   0.0000024       -0.0000084   0.9883008  -0.0000003
  -0.0000000   0.0000013   4.3184520       -0.0000000  -0.0000006   1.4549624
 
                       Lattice parameters(A)       Cell Angles
                    a =    6.357528          alpha =   89.999961
                    b =    6.357564          beta  =   90.000000
                    c =    4.318452          gamma =   89.999030
 
                Current cell volume =  174.544867 A**3
 
                           -------------------------------
                                     Cell Contents
                           -------------------------------
 
            xxxxxxxxxxxxxxxxxxxxxxxxxxxxxxxxxxxxxxxxxxxxxxxxxxxxxxxxxxxxxxxxx
            x  Element         Atom        Fractional coordinates of atoms  x
            x                 Number           u          v          w      x
            x---------------------------------------------------------------x
            x  O                 1        -0.000000   0.499999   0.244396   x
            x  O                 2         0.809280   0.008819   0.291837   x
            x  O                 3         0.491189   0.309316   0.291856   x
            x  O                 4         0.508809   0.690687   0.291858   x
            x  O                 5         0.190721   0.991180   0.291834   x
            x  O                 6         0.008653   0.190546   0.708268   x
            x  O                 7         0.690508   0.491342   0.708248   x
            x  O                 8         0.309493   0.508656   0.708245   x
            x  O                 9         0.991345   0.809457   0.708268   x
            x  O                10         0.500000  -0.000001   0.755452   x
            x  S                 1         0.000000   0.000001   0.499925   x
            x  S                 2         0.500000   0.500000   0.499921   x
            x  V                 1         0.500001  -0.000000   0.384664   x
            x  V                 2         0.000001   0.500001   0.615227   x
            xxxxxxxxxxxxxxxxxxxxxxxxxxxxxxxxxxxxxxxxxxxxxxxxxxxxxxxxxxxxxxxxx
 
 
------------------------------------------------------------------------ <-- SCF
SCF loop      Energy           Fermi           Energy gain       Timer   <-- SCF
                               energy          per atom          (sec)   <-- SCF
------------------------------------------------------------------------ <-- SCF
Initial  -8.90103893E+003  0.00000000E+000                      3269.85  <-- SCF
      1  -8.90123818E+003  3.22917699E+000   1.42321626E-002    3283.26  <-- SCF
      2  -8.90123821E+003  3.22917673E+000   2.22208604E-006    3294.56  <-- SCF
      3  -8.90126297E+003  3.21271154E+000   1.76868912E-003    3309.67  <-- SCF
      4  -8.90118202E+003  3.21732745E+000  -5.78219786E-003    3324.45  <-- SCF
      5  -8.90123513E+003  3.23508653E+000   3.79331717E-003    3338.70  <-- SCF
      6  -8.90123490E+003  3.22991228E+000  -1.60113133E-005    3350.94  <-- SCF
      7  -8.90123489E+003  3.23115546E+000  -1.10422544E-006    3360.55  <-- SCF
      8  -8.90123488E+003  3.23172908E+000  -2.25975807E-007    3370.28  <-- SCF
------------------------------------------------------------------------ <-- SCF
 
Final energy, E             =  -8901.043252649     eV
Final free energy (E-TS)    =  -8901.234882261     eV
(energies not corrected for finite basis set)
 
NB est. 0K energy (E-0.5TS)      =  -8901.139067455     eV
 
 
 ******************************** Constrained Forces ********************************
 *                                                                                  *
 *                           Cartesian components (eV/A)                            *
 * -------------------------------------------------------------------------------- *
 *                         x                    y                    z              *
 *                                                                                  *
 * O               1      0.00001              0.00006             -0.01830         *
 * O               2      0.02512             -0.01315              0.00203         *
 * O               3      0.01247              0.01288             -0.00390         *
 * O               4     -0.01234             -0.01338             -0.00368         *
 * O               5     -0.02541              0.01326              0.00237         *
 * O               6     -0.00471              0.01231             -0.00800         *
 * O               7      0.02523              0.00474             -0.00204         *
 * O               8     -0.02546             -0.00462             -0.00176         *
 * O               9      0.00487             -0.01270             -0.00781         *
 * O              10      0.00001              0.00003              0.02604         *
 * S               1      0.00019              0.00018              0.00285         *
 * S               2      0.00016              0.00037              0.00290         *
 * V               1     -0.00007              0.00003              0.02676         *
 * V               2     -0.00007             -0.00001             -0.01745         *
 *                                                                                  *
 ************************************************************************************
 
 ***************** Stress Tensor *****************
 *                                               *
 *          Cartesian components (GPa)           *
 * --------------------------------------------- *
 *             x             y             z     *
 *                                               *
 *  x      0.036217      0.000548     -0.000070  *
 *  y      0.000548      0.038035     -0.000039  *
 *  z     -0.000070     -0.000039      0.075247  *
 *                                               *
 *  Pressure:   -0.0498                          *
 *                                               *
 *************************************************
  
 +------------+-------------+-------------+-----------------+ <-- min BFGS
 |    Step    |   lambda    |   F.delta'  |    enthalpy     | <-- min BFGS
 +------------+-------------+-------------+-----------------+ <-- min BFGS
 |  previous  |    0.000000 |    0.005936 |    -8901.234824 | <-- min BFGS
 | trial step |    1.000000 |    0.004487 |    -8901.234882 | <-- min BFGS
 +------------+-------------+-------------+-----------------+ <-- min BFGS
  
 BFGS: finished iteration     9 with enthalpy= -8.90123488E+003 eV
  
 +-----------+-----------------+-----------------+------------+-----+ <-- BFGS
 | Parameter |      value      |    tolerance    |    units   | OK? | <-- BFGS
 +-----------+-----------------+-----------------+------------+-----+ <-- BFGS
 |  dE/ion   |   4.185817E-006 |   2.000000E-005 |         eV | Yes | <-- BFGS
 |  |F|max   |   2.875500E-002 |   5.000000E-002 |       eV/A | Yes | <-- BFGS
 |  |dR|max  |   9.507865E-004 |   1.000000E-003 |          A | Yes | <-- BFGS
 |   Smax    |   7.524688E-002 |   1.000000E-001 |        GPa | Yes | <-- BFGS
 +-----------+-----------------+-----------------+------------+-----+ <-- BFGS
  
 BFGS: Geometry optimization completed successfully.

================================================================================
 BFGS: Final Configuration:
================================================================================
 
                           -------------------------------
                                      Unit Cell
                           -------------------------------
        Real Lattice(A)              Reciprocal Lattice(1/A)
   6.3575277   0.0000538   0.0000000        0.9883064  -0.0000084   0.0000000
   0.0000538   6.3575637   0.0000024       -0.0000084   0.9883008  -0.0000003
  -0.0000000   0.0000013   4.3184520       -0.0000000  -0.0000006   1.4549624
 
                       Lattice parameters(A)       Cell Angles
                    a =    6.357528          alpha =   89.999961
                    b =    6.357564          beta  =   90.000000
                    c =    4.318452          gamma =   89.999030
 
                Current cell volume =  174.544867 A**3
 
                           -------------------------------
                                     Cell Contents
                           -------------------------------
 
            xxxxxxxxxxxxxxxxxxxxxxxxxxxxxxxxxxxxxxxxxxxxxxxxxxxxxxxxxxxxxxxxx
            x  Element         Atom        Fractional coordinates of atoms  x
            x                 Number           u          v          w      x
            x---------------------------------------------------------------x
            x  O                 1        -0.000000   0.499999   0.244396   x
            x  O                 2         0.809280   0.008819   0.291837   x
            x  O                 3         0.491189   0.309316   0.291856   x
            x  O                 4         0.508809   0.690687   0.291858   x
            x  O                 5         0.190721   0.991180   0.291834   x
            x  O                 6         0.008653   0.190546   0.708268   x
            x  O                 7         0.690508   0.491342   0.708248   x
            x  O                 8         0.309493   0.508656   0.708245   x
            x  O                 9         0.991345   0.809457   0.708268   x
            x  O                10         0.500000  -0.000001   0.755452   x
            x  S                 1         0.000000   0.000001   0.499925   x
            x  S                 2         0.500000   0.500000   0.499921   x
            x  V                 1         0.500001  -0.000000   0.384664   x
            x  V                 2         0.000001   0.500001   0.615227   x
            xxxxxxxxxxxxxxxxxxxxxxxxxxxxxxxxxxxxxxxxxxxxxxxxxxxxxxxxxxxxxxxxx
 
 
 BFGS: Final Enthalpy     = -8.90123488E+003 eV
 BFGS: Final <frequency>  =    7627.56553 cm-1
 BFGS: Final bulk modulus =     101.83445 GPa
  
  **********************************************************
  *** There were at least     1 warnings during this run ***
  *** => please check the whole of this file carefully!  ***
  **********************************************************
 
 ******************* Unconstrained Forces *******************
 *                                                          *
 *               Cartesian components (eV/A)                *
 * -------------------------------------------------------- *
 *                         x            y            z      *
 *                                                          *
 * O               1      0.00001      0.00006     -0.01830 *
 * O               2      0.02512     -0.01315      0.00203 *
 * O               3      0.01247      0.01288     -0.00390 *
 * O               4     -0.01234     -0.01338     -0.00368 *
 * O               5     -0.02541      0.01326      0.00237 *
 * O               6     -0.00471      0.01231     -0.00800 *
 * O               7      0.02523      0.00474     -0.00204 *
 * O               8     -0.02546     -0.00462     -0.00176 *
 * O               9      0.00487     -0.01270     -0.00781 *
 * O              10      0.00001      0.00003      0.02604 *
 * S               1      0.00019      0.00018      0.00285 *
 * S               2      0.00016      0.00037      0.00290 *
 * V               1     -0.00007      0.00003      0.02676 *
 * V               2     -0.00007     -0.00001     -0.01745 *
 *                                                          *
 ************************************************************
 
 ******************************** Constrained Forces ********************************
 *                                                                                  *
 *                           Cartesian components (eV/A)                            *
 * -------------------------------------------------------------------------------- *
 *                         x                    y                    z              *
 *                                                                                  *
 * O               1      0.00001              0.00006             -0.01830         *
 * O               2      0.02512             -0.01315              0.00203         *
 * O               3      0.01247              0.01288             -0.00390         *
 * O               4     -0.01234             -0.01338             -0.00368         *
 * O               5     -0.02541              0.01326              0.00237         *
 * O               6     -0.00471              0.01231             -0.00800         *
 * O               7      0.02523              0.00474             -0.00204         *
 * O               8     -0.02546             -0.00462             -0.00176         *
 * O               9      0.00487             -0.01270             -0.00781         *
 * O              10      0.00001              0.00003              0.02604         *
 * S               1      0.00019              0.00018              0.00285         *
 * S               2      0.00016              0.00037              0.00290         *
 * V               1     -0.00007              0.00003              0.02676         *
 * V               2     -0.00007             -0.00001             -0.01745         *
 *                                                                                  *
 ************************************************************************************
 
 ***************** Stress Tensor *****************
 *                                               *
 *          Cartesian components (GPa)           *
 * --------------------------------------------- *
 *             x             y             z     *
 *                                               *
 *  x      0.036217      0.000548     -0.000070  *
 *  y      0.000548      0.038035     -0.000039  *
 *  z     -0.000070     -0.000039      0.075247  *
 *                                               *
 *  Pressure:   -0.0498                          *
 *                                               *
 *************************************************
 
 Pseudo atomic calculation performed for O 2s2 2p4
 
 Converged in 12 iterations to a total energy of -431.3437 eV
 
 
 Pseudo atomic calculation performed for S 3s2 3p4
 
 Converged in 19 iterations to a total energy of -299.4518 eV
 
 
 Pseudo atomic calculation performed for V 3s2 3p6 3d3 4s2
 
 Converged in 33 iterations to a total energy of -1945.7424 eV
 
Charge spilling parameter for spin component 1 = 1.04%
 
     Atomic Populations (Mulliken)
     -----------------------------
Species          Ion     s      p      d      f     Total  Charge (e)
=====================================================================
  O               1     1.90   4.50   0.00   0.00   6.40    -0.40
  O               2     1.86   4.93   0.00   0.00   6.79    -0.79
  O               3     1.86   4.94   0.00   0.00   6.79    -0.79
  O               4     1.86   4.94   0.00   0.00   6.79    -0.79
  O               5     1.86   4.93   0.00   0.00   6.79    -0.79
  O               6     1.86   4.94   0.00   0.00   6.79    -0.79
  O               7     1.86   4.93   0.00   0.00   6.79    -0.79
  O               8     1.86   4.93   0.00   0.00   6.79    -0.79
  O               9     1.86   4.94   0.00   0.00   6.79    -0.79
  O              10     1.90   4.50   0.00   0.00   6.39    -0.39
  S               1     1.19   2.55   0.00   0.00   3.74     2.26
  S               2     1.19   2.55   0.00   0.00   3.74     2.26
  V               1     2.16   6.20   3.33   0.00  11.69     1.31
  V               2     2.17   6.20   3.33   0.00  11.69     1.31
=====================================================================
 
                 Bond                   Population      Length (A)
======================================================================
              O 8  -- S 2                    0.58        1.50973
              O 7  -- S 2                    0.58        1.50973
              O 9  -- S 1                    0.58        1.50997
              O 6  -- S 1                    0.58        1.50997
              O 3  -- S 2                    0.58        1.51001
              O 4  -- S 2                    0.58        1.51002
              O 2  -- S 1                    0.58        1.51024
              O 5  -- S 1                    0.58        1.51025
              O 10 -- V 1                    0.83        1.60123
              O 1  -- V 2                    0.83        1.60141
              O 2  -- V 1                    0.29        2.00748
              O 5  -- V 1                    0.29        2.00749
              O 4  -- V 1                    0.29        2.00768
              O 3  -- V 1                    0.29        2.00770
              O 6  -- V 2                    0.29        2.00874
              O 9  -- V 2                    0.29        2.00875
              O 8  -- V 2                    0.29        2.00894
              O 7  -- V 2                    0.29        2.00895
              O 7  -- O 8                   -0.16        2.42481
              O 6  -- O 9                   -0.16        2.42530
              O 3  -- O 4                   -0.16        2.42718
              O 2  -- O 5                   -0.16        2.42761
              O 3  -- O 8                   -0.15        2.48471
              O 4  -- O 7                   -0.15        2.48473
              O 2  -- O 6                   -0.15        2.48505
              O 5  -- O 9                   -0.15        2.48506
              O 4  -- O 8                   -0.15        2.48563
              O 3  -- O 7                   -0.15        2.48564
              O 2  -- O 9                   -0.15        2.48600
              O 5  -- O 6                   -0.15        2.48603
              O 4  -- O 5                   -0.03        2.78191
              O 2  -- O 3                   -0.03        2.78194
              O 2  -- O 4                   -0.03        2.78206
              O 3  -- O 5                   -0.03        2.78207
              O 6  -- O 7                   -0.03        2.78350
              O 8  -- O 9                   -0.03        2.78353
              O 6  -- O 8                   -0.03        2.78358
              O 7  -- O 9                   -0.03        2.78358
              O 2  -- O 10                  -0.01        2.80673
              O 5  -- O 10                  -0.01        2.80673
              O 4  -- O 10                  -0.01        2.80681
              O 3  -- O 10                  -0.01        2.80684
              O 1  -- O 6                   -0.02        2.80827
              O 1  -- O 9                   -0.02        2.80830
              O 1  -- O 8                   -0.02        2.80838
              O 1  -- O 7                   -0.02        2.80838
======================================================================
 

Writing analysis data to 18307.castep_bin

Writing model to 18307.check
 
 A BibTeX formatted list of references used in this run has been written to 
 18307.bib
 
Initialisation time =     11.61 s
Calculation time    =   3391.34 s
Finalisation time   =      1.19 s
Total time          =   3404.13 s
Peak Memory Use     = 1672740 kB
  
Overall parallel efficiency rating: Excellent (99%)                             
  
Data was distributed by:-
k-point (4-way); efficiency rating: Excellent (99%)                             
