 +-------------------------------------------------+
 |                                                 |
 |      CCC   AA    SSS  TTTTT  EEEEE  PPPP        |
 |     C     A  A  S       T    E      P   P       |
 |     C     AAAA   SS     T    EEE    PPPP        |
 |     C     A  A     S    T    E      P           |
 |      CCC  A  A  SSS     T    EEEEE  P           |
 |                                                 |
 +-------------------------------------------------+
 |                                                 |
 | Welcome to Academic Release CASTEP version 17.21|          
 | Ab Initio Total Energy Program                  |
 |                                                 |
 | Authors:                                        |
 | M. Segall, M. Probert, C. Pickard, P. Hasnip,   |
 | S. Clark, K. Refson, J. R. Yates, M. Payne      |
 |                                                 |
 | Contributors:                                   |
 | P. Lindan, P. Haynes, J. White, V. Milman,      |
 | N. Govind, M. Gibson, P. Tulip, V. Cocula,      |
 | B. Montanari, D. Quigley, M. Glover,            |
 | L. Bernasconi, A. Perlov, M. Plummer,           |
 | E. McNellis, J. Meyer, J. Gale, D. Jochym       |
 | J. Aarons, B. Walker, R. Gillen, D. Jones       |
 | T. Green, I. J. Bush, C. J. Armstrong,          |
 | E. J. Higgins, E. L. Brown, M. S. McFly,        |
 | J. Wilkins, B-C. Shih, P. J. P. Byrne           |
 |                                                 |
 | Copyright (c) 2000 - 2017                       |
 |                                                 |
 |     Distributed under the terms of an           |
 |     Agreement between the United Kingdom        |
 |     Car-Parrinello (UKCP) Consortium,           |
 |     Daresbury Laboratory and Accelrys, Inc.     |
 |                                                 |
 | Please cite                                     |
 |                                                 |
 |     "First principles methods using CASTEP"     |
 |                                                 |
 |         Zeitschrift fuer Kristallographie       |
 |           220(5-6) pp. 567-570 (2005)           |
 |                                                 |
 | S. J. Clark, M. D. Segall, C. J. Pickard,       |
 | P. J. Hasnip, M. J. Probert, K. Refson,         |
 | M. C. Payne                                     |
 |                                                 |
 |       in all publications arising from          |
 |              your use of CASTEP                 |
 |                                                 |
 +-------------------------------------------------+
 
 
 Compiled for linux_x86_64_ifort17 on Fri, 08 Sep 2017 17:58:23 +0100
 from code version 
 056e886bd5a1+ Castep172_branch Mon, 15 May 2017 14:45:35 +0100
 Compiler: Intel Fortran 17.0.2.174; Optimisation: fast
 MATHLIBS: Intel MKL(2017.0.2) (LAPACK version 3.7.0)
 FFT Lib : mkl
 Fundamental constants values: CODATA 2010
 
 Run started: Thu, 04 Jul 2019 13:08:57 +0100
 
 Atomic calculation performed for O: 1s2 2s2 2p4
 
 Converged in 61 iterations to an ae energy of -2040.902 eV
 
   ============================================================                
   | Pseudopotential Report - Date of generation  4-07-2019   |                
   ------------------------------------------------------------                
   | Element: O Ionic charge:  6.00 Level of theory: PBE      |                
   | Atomic Solver: Koelling-Harmon                           |                
   |                                                          |                
   |               Reference Electronic Structure             |                
   |         Orbital         Occupation         Energy        |                
   |            2s              2.000           -0.881        |                
   |            2p              4.000           -0.332        |                
   |                                                          |                
   |                 Pseudopotential Definition               |                
   |        Beta     l      e      Rc     scheme   norm       |                
   |          1      0   -0.881   1.697     qc      0         |                
   |          2      0    0.250   1.697     qc      0         |                
   |          3      1   -0.332   1.697     qc      0         |                
   |          4      1    0.250   1.697     qc      0         |                
   |         loc     2    0.000   1.697     pn      0         |                
   |                                                          |                
   | Augmentation charge Rinner = 1.186                       |                
   | Partial core correction Rc = 1.186                       |                
   ------------------------------------------------------------                
   | "2|1.7|7|7|9|20:21(qc=5)"                                |                
   ------------------------------------------------------------                
   |      Author: Chris J. Pickard, Cambridge University      |                
   ============================================================                
 
 Atomic calculation performed for Na: 1s2 2s2 2p6 3s1
 
 Converged in 65 iterations to an ae energy of -4418.769 eV
 
   ============================================================                
   | Pseudopotential Report - Date of generation  4-07-2019   |                
   ------------------------------------------------------------                
   | Element: Na Ionic charge:  9.00 Level of theory: PBE     |                
   | Atomic Solver: Koelling-Harmon                           |                
   |                                                          |                
   |               Reference Electronic Structure             |                
   |         Orbital         Occupation         Energy        |                
   |            2s              2.000           -2.086        |                
   |            2p              6.000           -1.054        |                
   |            3s              1.000           -0.101        |                
   |                                                          |                
   |                 Pseudopotential Definition               |                
   |        Beta     l      e      Rc     scheme   norm       |                
   |          1      0   -2.086   1.796     qc      0         |                
   |          2      0   -0.101   1.796     qc      0         |                
   |          3      0    0.250   1.796     qc      0         |                
   |          4      1   -1.054   1.796     qc      0         |                
   |          5      1    0.250   1.796     qc      0         |                
   |         loc     2    0.000   1.796     pn      0         |                
   |                                                          |                
   | Augmentation charge Rinner = 1.265                       |                
   | Partial core correction Rc = 1.265                       |                
   ------------------------------------------------------------                
   | "2|1.8|8|9|10|20U:30:21(qc=5)"                           |                
   ------------------------------------------------------------                
   |      Author: Chris J. Pickard, Cambridge University      |                
   ============================================================                
 
 Atomic calculation performed for S: 1s2 2s2 2p6 3s2 3p4
 
 Converged in 57 iterations to an ae energy of -10858.586 eV
 
   ============================================================                
   | Pseudopotential Report - Date of generation  4-07-2019   |                
   ------------------------------------------------------------                
   | Element: S Ionic charge:  6.00 Level of theory: PBE      |                
   | Atomic Solver: Koelling-Harmon                           |                
   |                                                          |                
   |               Reference Electronic Structure             |                
   |         Orbital         Occupation         Energy        |                
   |            3s              2.000           -0.634        |                
   |            3p              4.000           -0.258        |                
   |                                                          |                
   |                 Pseudopotential Definition               |                
   |        Beta     l      e      Rc     scheme   norm       |                
   |          1      0   -0.634   1.796     qc      0         |                
   |          2      0    0.250   1.796     qc      0         |                
   |          3      1   -0.258   1.796     qc      0         |                
   |          4      1    0.250   1.796     qc      0         |                
   |          5      2    0.000   1.796     qc      0         |                
   |          6      2    0.250   1.796     qc      0         |                
   |         loc     3    0.000   1.796     pn      0         |                
   |                                                          |                
   | Augmentation charge Rinner = 1.255                       |                
   | Partial core correction Rc = 1.255                       |                
   ------------------------------------------------------------                
   | "3|1.8|5|6|7|30:31:32(qc=5)"                             |                
   ------------------------------------------------------------                
   |      Author: Chris J. Pickard, Cambridge University      |                
   ============================================================                
 
 Pseudo atomic calculation performed for O 2s2 2p4
 
 Converged in 12 iterations to a total energy of -431.3437 eV
 
 
 Pseudo atomic calculation performed for Na 2s2 2p6 3s1
 
 Converged in 19 iterations to a total energy of -1293.0763 eV
 
 
 Pseudo atomic calculation performed for S 3s2 3p4
 
 Converged in 19 iterations to a total energy of -299.4518 eV
 
 Calculation parallelised over 4 processes.
 Data is distributed by k-point(4-way)

 ************************************ Title ************************************
 

 ***************************** General Parameters ******************************
  
 output verbosity                               : normal  (1)
 write checkpoint data to                       : 2895.check
 type of calculation                            : geometry optimization
 stress calculation                             : on
 density difference calculation                 : on
 electron localisation func (ELF) calculation   : off
 Hirshfeld analysis                             : off
 unlimited duration calculation
 timing information                             : on
 memory usage estimate                          : on
 write final potential to formatted file        : off
 write final density to formatted file          : on
 write BibTeX reference list                    : on
 write OTFG pseudopotential files               : on
 write electrostatic potential file             : on
 write bands file                               : on
 checkpoint writing                             : both castep_bin and check files
  
 output         length unit                     : A
 output           mass unit                     : amu
 output           time unit                     : ps
 output         charge unit                     : e
 output           spin unit                     : hbar/2
 output         energy unit                     : eV
 output          force unit                     : eV/A
 output       velocity unit                     : A/ps
 output       pressure unit                     : GPa
 output     inv_length unit                     : 1/A
 output      frequency unit                     : cm-1
 output force constant unit                     : eV/A**2
 output         volume unit                     : A**3
 output   IR intensity unit                     : (D/A)**2/amu
 output         dipole unit                     : D
 output         efield unit                     : eV/A/e
 output        entropy unit                     : J/mol/K
  
 wavefunctions paging                           : none
 random number generator seed                   : randomised (130858038)
 data distribution                              : optimal for this architecture
 optimization strategy                          : maximize speed(+++)

 *********************** Exchange-Correlation Parameters ***********************
  
 using functional                               : Perdew Burke Ernzerhof
 relativistic treatment                         : Koelling-Harmon
 DFT+D: Semi-empirical dispersion correction    : off

 ************************* Pseudopotential Parameters **************************
  
 pseudopotential representation                 : reciprocal space
 <beta|phi> representation                      : reciprocal space
 spin-orbit coupling                            : off

 **************************** Basis Set Parameters *****************************
  
 plane wave basis set cut-off                   :   800.0000   eV
 size of standard grid                          :     2.0000
 size of   fine   gmax                          :    28.9810   1/A
 finite basis set correction                    : none

 **************************** Electronic Parameters ****************************
  
 number of  electrons                           :  384.0    
 net charge of system                           :  0.000    
 treating system as non-spin-polarized
 number of bands                                :        230

 ********************* Electronic Minimization Parameters **********************
  
 Method: Treating system as metallic with density mixing treatment of electrons,
         and number of  SD  steps               :          1
         and number of  CG  steps               :          4
  
 total energy / atom convergence tol.           : 0.1000E-04   eV
 eigen-energy convergence tolerance             : 0.1000E-05   eV
 max force / atom convergence tol.              : ignored
 convergence tolerance window                   :          3   cycles
 max. number of SCF cycles                      :         30
 number of fixed-spin iterations                :         10
 smearing scheme                                : Gaussian
 smearing width                                 : 0.2000       eV
 Fermi energy convergence tolerance             : 0.2721E-13   eV
 periodic dipole correction                     : NONE

 ************************** Density Mixing Parameters **************************
  
 density-mixing scheme                          : Pulay
 max. length of mixing history                  :         20
 charge density mixing amplitude                : 0.4000    
 cut-off energy for mixing                      :  800.0       eV

 *********************** Population Analysis Parameters ************************
  
 Population analysis with cutoff                :  3.000       A

 ********************** Geometry Optimization Parameters ***********************
  
 optimization method                            : BFGS
 variable cell method                           : fixed basis quality
 max. number of steps                           :          2
 estimated bulk modulus                         :  500.0       GPa
 estimated <frequency>                          :  1668.       cm-1
 geom line minimiser                            : on
 with line minimiser tolerance                  :     0.4000
 total energy convergence tolerance             : 0.2000E-04   eV/atom
        max ionic |force| tolerance             : 0.5000E-01   eV/A
 max ionic |displacement| tolerance             : 0.1000E-02   A
   max |stress component| tolerance             : 0.1000       GPa
 convergence tolerance window                   :          2   steps
 backup results every                           :          5   steps
 write geom trajectory file                     : on

 *******************************************************************************
  
 
                           -------------------------------
                                      Unit Cell
                           -------------------------------
        Real Lattice(A)                      Reciprocal Lattice(1/A)
   5.8596000   0.0000000   0.0000000        1.0722891   0.0000000   0.0000000
   0.0000000  12.3044000   0.0000000        0.0000000   0.5106454   0.0000000
   0.0000000   0.0000000   9.8170000        0.0000000   0.0000000   0.6400311
 
                       Lattice parameters(A)       Cell Angles
                    a =    5.859600          alpha =   90.000000
                    b =   12.304400          beta  =   90.000000
                    c =    9.817000          gamma =   90.000000
 
                       Current cell volume =  707.794531       A**3
                                   density =    1.605473   AMU/A**3
                                           =    2.665951     g/cm^3
 
                           -------------------------------
                                     Cell Contents
                           -------------------------------
                         Total number of ions in cell =   56
                      Total number of species in cell =    3
                        Max number of any one species =   32
 
            xxxxxxxxxxxxxxxxxxxxxxxxxxxxxxxxxxxxxxxxxxxxxxxxxxxxxxxxxxxx
            x  Element    Atom        Fractional coordinates of atoms  x
            x            Number           u          v          w      x
            x----------------------------------------------------------x
            x  O            1         0.270300   0.057200   0.036300   x 
            x  O            2         0.979700   0.192800   0.036300   x 
            x  O            3         0.770300   0.557200   0.036300   x 
            x  O            4         0.479700   0.692800   0.036300   x 
            x  O            5         0.979700   0.057200   0.213700   x 
            x  O            6         0.270300   0.192800   0.213700   x 
            x  O            7         0.479700   0.557200   0.213700   x 
            x  O            8         0.770300   0.692800   0.213700   x 
            x  O            9         0.729700   0.307200   0.286300   x 
            x  O           10         0.020300   0.442800   0.286300   x 
            x  O           11         0.229700   0.807200   0.286300   x 
            x  O           12         0.520300   0.942800   0.286300   x 
            x  O           13         0.020300   0.307200   0.463700   x 
            x  O           14         0.729700   0.442800   0.463700   x 
            x  O           15         0.520300   0.807200   0.463700   x 
            x  O           16         0.229700   0.942800   0.463700   x 
            x  O           17         0.770300   0.057200   0.536300   x 
            x  O           18         0.479700   0.192800   0.536300   x 
            x  O           19         0.270300   0.557200   0.536300   x 
            x  O           20         0.979700   0.692800   0.536300   x 
            x  O           21         0.479700   0.057200   0.713700   x 
            x  O           22         0.770300   0.192800   0.713700   x 
            x  O           23         0.979700   0.557200   0.713700   x 
            x  O           24         0.270300   0.692800   0.713700   x 
            x  O           25         0.229700   0.307200   0.786300   x 
            x  O           26         0.520300   0.442800   0.786300   x 
            x  O           27         0.729700   0.807200   0.786300   x 
            x  O           28         0.020300   0.942800   0.786300   x 
            x  O           29         0.520300   0.307200   0.963700   x 
            x  O           30         0.229700   0.442800   0.963700   x 
            x  O           31         0.020300   0.807200   0.963700   x 
            x  O           32         0.729700   0.942800   0.963700   x 
            x  Na           1         0.875000   0.375000   0.058600   x 
            x  Na           2         0.375000   0.875000   0.058600   x 
            x  Na           3         0.375000   0.375000   0.191400   x 
            x  Na           4         0.875000   0.875000   0.191400   x 
            x  Na           5         0.625000   0.125000   0.308600   x 
            x  Na           6         0.125000   0.625000   0.308600   x 
            x  Na           7         0.125000   0.125000   0.441400   x 
            x  Na           8         0.625000   0.625000   0.441400   x 
            x  Na           9         0.375000   0.375000   0.558600   x 
            x  Na          10         0.875000   0.875000   0.558600   x 
            x  Na          11         0.875000   0.375000   0.691400   x 
            x  Na          12         0.375000   0.875000   0.691400   x 
            x  Na          13         0.125000   0.125000   0.808600   x 
            x  Na          14         0.625000   0.625000   0.808600   x 
            x  Na          15         0.625000   0.125000   0.941400   x 
            x  Na          16         0.125000   0.625000   0.941400   x 
            x  S            1         0.125000   0.125000   0.125000   x 
            x  S            2         0.625000   0.625000   0.125000   x 
            x  S            3         0.875000   0.375000   0.375000   x 
            x  S            4         0.375000   0.875000   0.375000   x 
            x  S            5         0.625000   0.125000   0.625000   x 
            x  S            6         0.125000   0.625000   0.625000   x 
            x  S            7         0.375000   0.375000   0.875000   x 
            x  S            8         0.875000   0.875000   0.875000   x 
            xxxxxxxxxxxxxxxxxxxxxxxxxxxxxxxxxxxxxxxxxxxxxxxxxxxxxxxxxxxx
 
 
                         No user defined ionic velocities
 
                           -------------------------------
                                   Details of Species
                           -------------------------------
 
                               Mass of species in AMU
                                    O   15.9994000
                                    Na   22.9897700
                                    S   32.0660000
 
                          Electric Quadrupole Moment (Barn)
                                    O   -0.0255800 Isotope 17
                                    Na    0.1040000 Isotope 23
                                    S   -0.0678000 Isotope 33
 
                          Files used for pseudopotentials:
                                    O 2|1.7|7|7|9|20:21(qc=5)
                                    Na 2|1.8|8|9|10|20U:30:21(qc=5)
                                    S 3|1.8|5|6|7|30:31:32(qc=5)
 
                           -------------------------------
                              k-Points For BZ Sampling
                           -------------------------------
                       MP grid size for SCF calculation is  4  2  3
                            with an offset of   0.000  0.000  0.000
                       Number of kpoints used =            12
 
                           -------------------------------
                               Symmetry and Constraints
                           -------------------------------
 
                      Cell is a supercell containing 4 primitive cells
                      Maximum deviation from symmetry =  0.00000         ANG
 
                      Number of symmetry operations   =           1
                      Number of ionic constraints     =           3
                      Point group of crystal =     1: C1, 1, 1
                      Space group of crystal =    70: Fddd, F 2 2 -1d
 
             Set iprint > 1 for details on symmetry rotations/translations
 
                         Centre of mass is constrained
             Set iprint > 1 for details of linear ionic constraints
 
                         Number of cell constraints= 0
                         Cell constraints are:  1 2 3 4 5 6
 
                         External pressure/stress (GPa)
                          0.00000   0.00000   0.00000
                                    0.00000   0.00000
                                              0.00000
  
+---------------- MEMORY AND SCRATCH DISK ESTIMATES PER PROCESS --------------+
|                                                     Memory          Disk    |
| Baseline code, static data and system overhead      164.0 MB         0.0 MB |
| BLAS internal memory storage                          0.0 MB         0.0 MB |
| Model and support data                             2243.5 MB         0.0 MB |
| Electronic energy minimisation requirements        1272.0 MB         0.0 MB |
| Force calculation requirements                      100.2 MB         0.0 MB |
| Stress calculation requirements                     110.7 MB         0.0 MB |
|                                               ----------------------------- |
| Approx. total storage required per process         3679.5 MB         0.0 MB |
|                                                                             |
| Requirements will fluctuate during execution and may exceed these estimates |
+-----------------------------------------------------------------------------+
Calculating total energy with cut-off of  800.000 eV.
------------------------------------------------------------------------ <-- SCF
SCF loop      Energy           Fermi           Energy gain       Timer   <-- SCF
                               energy          per atom          (sec)   <-- SCF
------------------------------------------------------------------------ <-- SCF
Initial  -2.75642514E+004  0.00000000E+000                        21.69  <-- SCF
      1  -3.61371161E+004  4.08769276E+000   1.53086870E+002     167.03  <-- SCF
      2  -3.72267558E+004 -1.80978348E+000   1.94578514E+001     262.52  <-- SCF
      3  -3.72463983E+004 -1.61273710E+000   3.50758045E-001     373.96  <-- SCF
      4  -3.72007560E+004  5.93666225E-001  -8.15040134E-001     515.58  <-- SCF
      5  -3.72000097E+004  9.27915978E-001  -1.33270274E-002     672.74  <-- SCF
      6  -3.72000391E+004  1.11047769E+000   5.24819888E-004     801.30  <-- SCF
      7  -3.72000756E+004  1.16857156E+000   6.51186034E-004     937.53  <-- SCF
      8  -3.72001098E+004  1.19331990E+000   6.10431672E-004    1065.66  <-- SCF
      9  -3.72001111E+004  1.19552707E+000   2.33274885E-005    1178.05  <-- SCF
     10  -3.72001115E+004  1.19601282E+000   7.89873816E-006    1277.25  <-- SCF
     11  -3.72001115E+004  1.19587866E+000   4.97279246E-007    1375.73  <-- SCF
------------------------------------------------------------------------ <-- SCF
 
Final energy, E             =  -37200.11153123     eV
Final free energy (E-TS)    =  -37200.11153123     eV
(energies not corrected for finite basis set)
 
NB est. 0K energy (E-0.5TS)      =  -37200.11153123     eV
 

Writing analysis data to 2895.castep_bin

Writing model to 2895.check

WARNING - doing cell minimisation without finite basis correction:
        => now searching for a stationary and not minimum energy
 
+---------------- MEMORY AND SCRATCH DISK ESTIMATES PER PROCESS --------------+
|                                                     Memory          Disk    |
| Model and support data                             2222.8 MB         0.0 MB |
| Electronic energy minimisation requirements        1272.0 MB         0.0 MB |
| Geometry minimisation requirements                 1672.0 MB         0.0 MB |
|                                               ----------------------------- |
| Approx. total storage required per process         5166.9 MB         0.0 MB |
|                                                                             |
| Requirements will fluctuate during execution and may exceed these estimates |
+-----------------------------------------------------------------------------+
 
 
 ******************************** Constrained Forces ********************************
 *                                                                                  *
 *                           Cartesian components (eV/A)                            *
 * -------------------------------------------------------------------------------- *
 *                         x                    y                    z              *
 *                                                                                  *
 * O               1      1.33423             -1.29278             -1.34121         *
 * O               2     -1.33424              1.29281             -1.34122         *
 * O               3      1.33429             -1.29284             -1.34127         *
 * O               4     -1.33428              1.29281             -1.34126         *
 * O               5     -1.33423             -1.29278              1.34120         *
 * O               6      1.33422              1.29278              1.34120         *
 * O               7     -1.33432             -1.29285              1.34126         *
 * O               8      1.33432              1.29286              1.34128         *
 * O               9     -1.33421             -1.29275             -1.34121         *
 * O              10      1.33422              1.29277             -1.34120         *
 * O              11     -1.33435             -1.29288             -1.34131         *
 * O              12      1.33429              1.29284             -1.34127         *
 * O              13      1.33422             -1.29275              1.34118         *
 * O              14     -1.33422              1.29278              1.34119         *
 * O              15      1.33431             -1.29286              1.34128         *
 * O              16     -1.33427              1.29283              1.34124         *
 * O              17      1.33418             -1.29273             -1.34117         *
 * O              18     -1.33419              1.29275             -1.34117         *
 * O              19      1.33436             -1.29291             -1.34133         *
 * O              20     -1.33439              1.29290             -1.34137         *
 * O              21     -1.33420             -1.29274              1.34118         *
 * O              22      1.33421              1.29276              1.34118         *
 * O              23     -1.33438             -1.29293              1.34135         *
 * O              24      1.33439              1.29290              1.34135         *
 * O              25     -1.33432             -1.29286             -1.34128         *
 * O              26      1.33434              1.29287             -1.34129         *
 * O              27     -1.33425             -1.29279             -1.34120         *
 * O              28      1.33424              1.29278             -1.34118         *
 * O              29      1.33430             -1.29285              1.34129         *
 * O              30     -1.33434              1.29288              1.34132         *
 * O              31      1.33423             -1.29280              1.34124         *
 * O              32     -1.33423              1.29277              1.34122         *
 * Na              1      0.00000             -0.00000              0.00251         *
 * Na              2     -0.00000             -0.00000              0.00250         *
 * Na              3     -0.00001             -0.00000             -0.00250         *
 * Na              4      0.00001              0.00001             -0.00250         *
 * Na              5      0.00001             -0.00000              0.00251         *
 * Na              6      0.00001             -0.00000              0.00250         *
 * Na              7     -0.00000              0.00000             -0.00251         *
 * Na              8     -0.00000             -0.00000             -0.00251         *
 * Na              9      0.00000             -0.00001              0.00251         *
 * Na             10     -0.00000              0.00001              0.00250         *
 * Na             11     -0.00000             -0.00001             -0.00251         *
 * Na             12      0.00000              0.00001             -0.00251         *
 * Na             13      0.00001              0.00000              0.00250         *
 * Na             14      0.00000             -0.00001              0.00251         *
 * Na             15      0.00001             -0.00000             -0.00251         *
 * Na             16     -0.00000              0.00000             -0.00250         *
 * S               1      0.00001              0.00000              0.00004         *
 * S               2     -0.00004              0.00003             -0.00007         *
 * S               3      0.00001             -0.00002              0.00000         *
 * S               4     -0.00000              0.00009              0.00007         *
 * S               5      0.00001             -0.00003             -0.00006         *
 * S               6      0.00005             -0.00004             -0.00001         *
 * S               7      0.00000             -0.00003              0.00001         *
 * S               8     -0.00001              0.00004              0.00001         *
 *                                                                                  *
 ************************************************************************************
 
 ***************** Stress Tensor *****************
 *                                               *
 *          Cartesian components (GPa)           *
 * --------------------------------------------- *
 *             x             y             z     *
 *                                               *
 *  x     -9.993944     -0.000011     -0.000010  *
 *  y     -0.000011     -9.547300     -0.000000  *
 *  z     -0.000010     -0.000000    -10.108627  *
 *                                               *
 *  Pressure:    9.8833                          *
 *                                               *
 *************************************************
 BFGS: finished iteration     0 with enthalpy= -3.72001115E+004 eV
  
 +-----------+-----------------+-----------------+------------+-----+ <-- BFGS
 | Parameter |      value      |    tolerance    |    units   | OK? | <-- BFGS
 +-----------+-----------------+-----------------+------------+-----+ <-- BFGS
 |  dE/ion   |   0.000000E+000 |   2.000000E-005 |         eV | No  | <-- BFGS
 |  |F|max   |   2.291608E+000 |   5.000000E-002 |       eV/A | No  | <-- BFGS
 |  |dR|max  |   0.000000E+000 |   1.000000E-003 |          A | No  | <-- BFGS
 |   Smax    |   1.010863E+001 |   1.000000E-001 |        GPa | No  | <-- BFGS
 +-----------+-----------------+-----------------+------------+-----+ <-- BFGS
  

================================================================================
 Starting BFGS iteration          1 ...
================================================================================
  
 +------------+-------------+-------------+-----------------+ <-- min BFGS
 |    Step    |   lambda    |   F.delta'  |    enthalpy     | <-- min BFGS
 +------------+-------------+-------------+-----------------+ <-- min BFGS
 |  previous  |    0.000000 |    4.449979 |   -37200.111531 | <-- min BFGS
 +------------+-------------+-------------+-----------------+ <-- min BFGS
  

--------------------------------------------------------------------------------
 BFGS: starting iteration         1 with trial guess (lambda=  1.000000)
--------------------------------------------------------------------------------
 
+---------------- MEMORY AND SCRATCH DISK ESTIMATES PER PROCESS --------------+
|                                                     Memory          Disk    |
| Model and support data                             2236.4 MB         0.0 MB |
| Electronic energy minimisation requirements        1295.1 MB         0.0 MB |
| Geometry minimisation requirements                 1702.5 MB         0.0 MB |
|                                               ----------------------------- |
| Approx. total storage required per process         5234.0 MB         0.0 MB |
|                                                                             |
| Requirements will fluctuate during execution and may exceed these estimates |
+-----------------------------------------------------------------------------+
 
 
                           -------------------------------
                                      Unit Cell
                           -------------------------------
        Real Lattice(A)              Reciprocal Lattice(1/A)
   5.8986403   0.0000000   0.0000000        1.0651921  -0.0000000  -0.0000000
   0.0000001  12.3827159   0.0000000       -0.0000000   0.5074158  -0.0000000
   0.0000001   0.0000000   9.8831576       -0.0000000  -0.0000000   0.6357467
 
                       Lattice parameters(A)       Cell Angles
                    a =    5.898640          alpha =   90.000000
                    b =   12.382716          beta  =   89.999999
                    c =    9.883158          gamma =   89.999999
 
                Current cell volume =  721.877565 A**3
 
                           -------------------------------
                                     Cell Contents
                           -------------------------------
 
            xxxxxxxxxxxxxxxxxxxxxxxxxxxxxxxxxxxxxxxxxxxxxxxxxxxxxxxxxxxxxxxxx
            x  Element         Atom        Fractional coordinates of atoms  x
            x                 Number           u          v          w      x
            x---------------------------------------------------------------x
            x  O                 1         0.271397   0.056694   0.035642   x
            x  O                 2         0.978603   0.193306   0.035642   x
            x  O                 3         0.771397   0.556694   0.035642   x
            x  O                 4         0.478603   0.693306   0.035642   x
            x  O                 5         0.978603   0.056694   0.214358   x
            x  O                 6         0.271397   0.193306   0.214358   x
            x  O                 7         0.478603   0.556694   0.214358   x
            x  O                 8         0.771397   0.693306   0.214358   x
            x  O                 9         0.728603   0.306694   0.285642   x
            x  O                10         0.021397   0.443306   0.285642   x
            x  O                11         0.228603   0.806694   0.285642   x
            x  O                12         0.521397   0.943306   0.285642   x
            x  O                13         0.021397   0.306694   0.464358   x
            x  O                14         0.728603   0.443306   0.464358   x
            x  O                15         0.521397   0.806694   0.464358   x
            x  O                16         0.228603   0.943306   0.464358   x
            x  O                17         0.771397   0.056694   0.535642   x
            x  O                18         0.478603   0.193306   0.535642   x
            x  O                19         0.271397   0.556694   0.535642   x
            x  O                20         0.978603   0.693306   0.535642   x
            x  O                21         0.478603   0.056694   0.714358   x
            x  O                22         0.771397   0.193306   0.714358   x
            x  O                23         0.978603   0.556694   0.714358   x
            x  O                24         0.271397   0.693306   0.714358   x
            x  O                25         0.228603   0.306694   0.785642   x
            x  O                26         0.521397   0.443306   0.785642   x
            x  O                27         0.728603   0.806694   0.785642   x
            x  O                28         0.021397   0.943306   0.785642   x
            x  O                29         0.521397   0.306694   0.964358   x
            x  O                30         0.228603   0.443306   0.964358   x
            x  O                31         0.021397   0.806694   0.964358   x
            x  O                32         0.728603   0.943306   0.964358   x
            x  Na                1         0.875000   0.375000   0.058601   x
            x  Na                2         0.375000   0.875000   0.058601   x
            x  Na                3         0.375000   0.375000   0.191399   x
            x  Na                4         0.875000   0.875000   0.191399   x
            x  Na                5         0.625000   0.125000   0.308601   x
            x  Na                6         0.125000   0.625000   0.308601   x
            x  Na                7         0.125000   0.125000   0.441399   x
            x  Na                8         0.625000   0.625000   0.441399   x
            x  Na                9         0.375000   0.375000   0.558601   x
            x  Na               10         0.875000   0.875000   0.558601   x
            x  Na               11         0.875000   0.375000   0.691399   x
            x  Na               12         0.375000   0.875000   0.691399   x
            x  Na               13         0.125000   0.125000   0.808601   x
            x  Na               14         0.625000   0.625000   0.808601   x
            x  Na               15         0.625000   0.125000   0.941399   x
            x  Na               16         0.125000   0.625000   0.941399   x
            x  S                 1         0.125000   0.125000   0.125000   x
            x  S                 2         0.625000   0.625000   0.125000   x
            x  S                 3         0.875000   0.375000   0.375000   x
            x  S                 4         0.375000   0.875000   0.375000   x
            x  S                 5         0.625000   0.125000   0.625000   x
            x  S                 6         0.125000   0.625000   0.625000   x
            x  S                 7         0.375000   0.375000   0.875000   x
            x  S                 8         0.875000   0.875000   0.875000   x
            xxxxxxxxxxxxxxxxxxxxxxxxxxxxxxxxxxxxxxxxxxxxxxxxxxxxxxxxxxxxxxxxx
 
 
------------------------------------------------------------------------ <-- SCF
SCF loop      Energy           Fermi           Energy gain       Timer   <-- SCF
                               energy          per atom          (sec)   <-- SCF
------------------------------------------------------------------------ <-- SCF
Initial  -3.71978453E+004  0.00000000E+000                      1791.11  <-- SCF
      1  -3.72049370E+004  7.09359095E-001   1.26638552E-001    1916.44  <-- SCF
      2  -3.72049856E+004  7.09306030E-001   8.67813587E-004    2063.21  <-- SCF
      3  -3.72016273E+004  1.12145965E+000  -5.99693322E-002    2198.18  <-- SCF
      4  -3.72014076E+004  1.11499575E+000  -3.92422698E-003    2341.98  <-- SCF
      5  -3.72013527E+004  1.07986640E+000  -9.79619470E-004    2482.77  <-- SCF
      6  -3.72013463E+004  1.06952648E+000  -1.14092267E-004    2615.21  <-- SCF
      7  -3.72013462E+004  1.06746195E+000  -1.64439105E-006    2715.32  <-- SCF
      8  -3.72013464E+004  1.06618016E+000   2.54064574E-006    2808.64  <-- SCF
------------------------------------------------------------------------ <-- SCF
 
Final energy, E             =  -37201.34637564     eV
Final free energy (E-TS)    =  -37201.34637564     eV
(energies not corrected for finite basis set)
 
NB est. 0K energy (E-0.5TS)      =  -37201.34637564     eV
 
 
 ******************************** Constrained Forces ********************************
 *                                                                                  *
 *                           Cartesian components (eV/A)                            *
 * -------------------------------------------------------------------------------- *
 *                         x                    y                    z              *
 *                                                                                  *
 * O               1      0.61059             -0.56914             -0.61683         *
 * O               2     -0.61058              0.56913             -0.61682         *
 * O               3      0.61057             -0.56913             -0.61683         *
 * O               4     -0.61058              0.56914             -0.61684         *
 * O               5     -0.61059             -0.56915              0.61684         *
 * O               6      0.61059              0.56915              0.61684         *
 * O               7     -0.61057             -0.56912              0.61681         *
 * O               8      0.61056              0.56913              0.61681         *
 * O               9     -0.61060             -0.56917             -0.61684         *
 * O              10      0.61059              0.56915             -0.61684         *
 * O              11     -0.61055             -0.56911             -0.61680         *
 * O              12      0.61057              0.56914             -0.61682         *
 * O              13      0.61060             -0.56916              0.61685         *
 * O              14     -0.61059              0.56914              0.61684         *
 * O              15      0.61056             -0.56911              0.61682         *
 * O              16     -0.61058              0.56915              0.61684         *
 * O              17      0.61061             -0.56917             -0.61686         *
 * O              18     -0.61061              0.56915             -0.61685         *
 * O              19      0.61056             -0.56911             -0.61681         *
 * O              20     -0.61055              0.56910             -0.61679         *
 * O              21     -0.61060             -0.56916              0.61684         *
 * O              22      0.61059              0.56914              0.61683         *
 * O              23     -0.61054             -0.56910              0.61679         *
 * O              24      0.61055              0.56911              0.61680         *
 * O              25     -0.61056             -0.56913             -0.61682         *
 * O              26      0.61056              0.56911             -0.61681         *
 * O              27     -0.61058             -0.56913             -0.61683         *
 * O              28      0.61059              0.56916             -0.61684         *
 * O              29      0.61057             -0.56913              0.61682         *
 * O              30     -0.61056              0.56911              0.61681         *
 * O              31      0.61059             -0.56914              0.61683         *
 * O              32     -0.61059              0.56915              0.61684         *
 * Na              1      0.00000              0.00000              0.00478         *
 * Na              2     -0.00000             -0.00000              0.00478         *
 * Na              3     -0.00000              0.00000             -0.00478         *
 * Na              4      0.00000             -0.00000             -0.00478         *
 * Na              5      0.00000              0.00000              0.00478         *
 * Na              6     -0.00000              0.00000              0.00478         *
 * Na              7      0.00000              0.00000             -0.00478         *
 * Na              8      0.00000             -0.00000             -0.00478         *
 * Na              9      0.00000             -0.00000              0.00478         *
 * Na             10     -0.00000             -0.00000              0.00478         *
 * Na             11     -0.00000             -0.00000             -0.00478         *
 * Na             12      0.00000             -0.00000             -0.00478         *
 * Na             13     -0.00000             -0.00000              0.00478         *
 * Na             14      0.00000              0.00000              0.00478         *
 * Na             15      0.00000             -0.00000             -0.00478         *
 * Na             16     -0.00000              0.00000             -0.00477         *
 * S               1     -0.00001              0.00000             -0.00004         *
 * S               2      0.00002             -0.00001              0.00002         *
 * S               3     -0.00001              0.00002              0.00001         *
 * S               4     -0.00000             -0.00006             -0.00002         *
 * S               5     -0.00000              0.00002              0.00003         *
 * S               6     -0.00003              0.00001             -0.00001         *
 * S               7      0.00000              0.00003              0.00001         *
 * S               8      0.00000             -0.00003              0.00001         *
 *                                                                                  *
 ************************************************************************************
 
 ***************** Stress Tensor *****************
 *                                               *
 *          Cartesian components (GPa)           *
 * --------------------------------------------- *
 *             x             y             z     *
 *                                               *
 *  x     -4.981362      0.000019      0.000012  *
 *  y      0.000019     -4.692727     -0.000000  *
 *  z      0.000012     -0.000000     -4.992843  *
 *                                               *
 *  Pressure:    4.8890                          *
 *                                               *
 *************************************************
  
 +------------+-------------+-------------+-----------------+ <-- min BFGS
 |    Step    |   lambda    |   F.delta'  |    enthalpy     | <-- min BFGS
 +------------+-------------+-------------+-----------------+ <-- min BFGS
 |  previous  |    0.000000 |    4.449979 |   -37200.111531 | <-- min BFGS
 | trial step |    1.000000 |    2.132796 |   -37201.346376 | <-- min BFGS
 +------------+-------------+-------------+-----------------+ <-- min BFGS
  

--------------------------------------------------------------------------------
 BFGS: improving iteration         1 with line minimization (lambda=  1.920427)
--------------------------------------------------------------------------------
 
+---------------- MEMORY AND SCRATCH DISK ESTIMATES PER PROCESS --------------+
|                                                     Memory          Disk    |
| Model and support data                             2248.9 MB         0.0 MB |
| Electronic energy minimisation requirements        1316.2 MB         0.0 MB |
| Geometry minimisation requirements                 1730.4 MB         0.0 MB |
|                                               ----------------------------- |
| Approx. total storage required per process         5295.5 MB         0.0 MB |
|                                                                             |
| Requirements will fluctuate during execution and may exceed these estimates |
+-----------------------------------------------------------------------------+
 
 
                           -------------------------------
                                      Unit Cell
                           -------------------------------
        Real Lattice(A)              Reciprocal Lattice(1/A)
   5.9345741   0.0000001   0.0000001        1.0587424  -0.0000000  -0.0000000
   0.0000002  12.4547999   0.0000000       -0.0000000   0.5044790  -0.0000000
   0.0000001   0.0000000   9.9440508       -0.0000000  -0.0000000   0.6318537
 
                       Lattice parameters(A)       Cell Angles
                    a =    5.934574          alpha =   90.000000
                    b =   12.454800          beta  =   89.999998
                    c =    9.944051          gamma =   89.999998
 
                Current cell volume =  735.003902 A**3
 
                           -------------------------------
                                     Cell Contents
                           -------------------------------
 
            xxxxxxxxxxxxxxxxxxxxxxxxxxxxxxxxxxxxxxxxxxxxxxxxxxxxxxxxxxxxxxxxx
            x  Element         Atom        Fractional coordinates of atoms  x
            x                 Number           u          v          w      x
            x---------------------------------------------------------------x
            x  O                 1         0.272407   0.056228   0.035036   x
            x  O                 2         0.977593   0.193772   0.035036   x
            x  O                 3         0.772407   0.556228   0.035036   x
            x  O                 4         0.477593   0.693772   0.035036   x
            x  O                 5         0.977593   0.056228   0.214964   x
            x  O                 6         0.272407   0.193772   0.214964   x
            x  O                 7         0.477593   0.556228   0.214964   x
            x  O                 8         0.772407   0.693772   0.214964   x
            x  O                 9         0.727593   0.306228   0.285036   x
            x  O                10         0.022407   0.443772   0.285036   x
            x  O                11         0.227593   0.806228   0.285036   x
            x  O                12         0.522407   0.943772   0.285036   x
            x  O                13         0.022407   0.306228   0.464964   x
            x  O                14         0.727593   0.443772   0.464964   x
            x  O                15         0.522407   0.806228   0.464964   x
            x  O                16         0.227593   0.943772   0.464964   x
            x  O                17         0.772407   0.056228   0.535036   x
            x  O                18         0.477593   0.193772   0.535036   x
            x  O                19         0.272407   0.556228   0.535036   x
            x  O                20         0.977593   0.693772   0.535036   x
            x  O                21         0.477593   0.056228   0.714964   x
            x  O                22         0.772407   0.193772   0.714964   x
            x  O                23         0.977593   0.556228   0.714964   x
            x  O                24         0.272407   0.693772   0.714964   x
            x  O                25         0.227593   0.306228   0.785036   x
            x  O                26         0.522407   0.443772   0.785036   x
            x  O                27         0.727593   0.806228   0.785036   x
            x  O                28         0.022407   0.943772   0.785036   x
            x  O                29         0.522407   0.306228   0.964964   x
            x  O                30         0.227593   0.443772   0.964964   x
            x  O                31         0.022407   0.806228   0.964964   x
            x  O                32         0.727593   0.943772   0.964964   x
            x  Na                1         0.875000   0.375000   0.058602   x
            x  Na                2         0.375000   0.875000   0.058602   x
            x  Na                3         0.375000   0.375000   0.191398   x
            x  Na                4         0.875000   0.875000   0.191398   x
            x  Na                5         0.625000   0.125000   0.308602   x
            x  Na                6         0.125000   0.625000   0.308602   x
            x  Na                7         0.125000   0.125000   0.441398   x
            x  Na                8         0.625000   0.625000   0.441398   x
            x  Na                9         0.375000   0.375000   0.558602   x
            x  Na               10         0.875000   0.875000   0.558602   x
            x  Na               11         0.875000   0.375000   0.691398   x
            x  Na               12         0.375000   0.875000   0.691398   x
            x  Na               13         0.125000   0.125000   0.808602   x
            x  Na               14         0.625000   0.625000   0.808602   x
            x  Na               15         0.625000   0.125000   0.941398   x
            x  Na               16         0.125000   0.625000   0.941398   x
            x  S                 1         0.125000   0.125000   0.125000   x
            x  S                 2         0.625000   0.625000   0.125000   x
            x  S                 3         0.875000   0.375000   0.375000   x
            x  S                 4         0.375000   0.875000   0.375000   x
            x  S                 5         0.625000   0.125000   0.625000   x
            x  S                 6         0.125000   0.625000   0.625000   x
            x  S                 7         0.375000   0.375000   0.875000   x
            x  S                 8         0.875000   0.875000   0.875000   x
            xxxxxxxxxxxxxxxxxxxxxxxxxxxxxxxxxxxxxxxxxxxxxxxxxxxxxxxxxxxxxxxxx
 
 
------------------------------------------------------------------------ <-- SCF
SCF loop      Energy           Fermi           Energy gain       Timer   <-- SCF
                               energy          per atom          (sec)   <-- SCF
------------------------------------------------------------------------ <-- SCF
Initial  -3.71987928E+004  0.00000000E+000                      3226.66  <-- SCF
      1  -3.72048243E+004  6.21887146E-001   1.07705240E-001    3358.06  <-- SCF
      2  -3.72048654E+004  6.21843199E-001   7.33568423E-004    3507.52  <-- SCF
      3  -3.72020004E+004  1.00559020E+000  -5.11615042E-002    3645.39  <-- SCF
      4  -3.72018188E+004  9.94468572E-001  -3.24201886E-003    3794.28  <-- SCF
      5  -3.72017701E+004  9.63179910E-001  -8.70423953E-004    3936.15  <-- SCF
      6  -3.72017645E+004  9.52663117E-001  -9.86859437E-005    4069.61  <-- SCF
      7  -3.72017644E+004  9.51464021E-001  -1.75312473E-006    4168.87  <-- SCF
      8  -3.72017646E+004  9.50164883E-001   2.32839038E-006    4264.73  <-- SCF
------------------------------------------------------------------------ <-- SCF
 
Final energy, E             =  -37201.76457280     eV
Final free energy (E-TS)    =  -37201.76457280     eV
(energies not corrected for finite basis set)
 
NB est. 0K energy (E-0.5TS)      =  -37201.76457280     eV
 
 
 ******************************** Constrained Forces ********************************
 *                                                                                  *
 *                           Cartesian components (eV/A)                            *
 * -------------------------------------------------------------------------------- *
 *                         x                    y                    z              *
 *                                                                                  *
 * O               1      0.02924              0.00821             -0.03996         *
 * O               2     -0.02923             -0.00821             -0.03996         *
 * O               3      0.02922              0.00822             -0.03995         *
 * O               4     -0.02924             -0.00820             -0.03997         *
 * O               5     -0.02925              0.00820              0.03998         *
 * O               6      0.02926             -0.00819              0.03999         *
 * O               7     -0.02921              0.00824              0.03993         *
 * O               8      0.02920             -0.00824              0.03993         *
 * O               9     -0.02926              0.00818             -0.03998         *
 * O              10      0.02925             -0.00820             -0.03998         *
 * O              11     -0.02919              0.00826             -0.03991         *
 * O              12      0.02922             -0.00822             -0.03995         *
 * O              13      0.02926              0.00819              0.03998         *
 * O              14     -0.02925             -0.00821              0.03997         *
 * O              15      0.02921              0.00825              0.03994         *
 * O              16     -0.02924             -0.00820              0.03997         *
 * O              17      0.02928              0.00817             -0.04001         *
 * O              18     -0.02926             -0.00819             -0.03999         *
 * O              19      0.02920              0.00825             -0.03993         *
 * O              20     -0.02916             -0.00828             -0.03990         *
 * O              21     -0.02926              0.00819              0.03998         *
 * O              22      0.02926             -0.00820              0.03997         *
 * O              23     -0.02917              0.00827              0.03990         *
 * O              24      0.02918             -0.00826              0.03991         *
 * O              25     -0.02921              0.00823             -0.03994         *
 * O              26      0.02919             -0.00826             -0.03992         *
 * O              27     -0.02925              0.00821             -0.03997         *
 * O              28      0.02925             -0.00819             -0.03998         *
 * O              29      0.02921              0.00823              0.03994         *
 * O              30     -0.02920             -0.00825              0.03992         *
 * O              31      0.02924              0.00821              0.03996         *
 * O              32     -0.02926             -0.00819              0.03998         *
 * Na              1      0.00000              0.00000              0.01766         *
 * Na              2     -0.00000             -0.00000              0.01765         *
 * Na              3     -0.00000              0.00000             -0.01765         *
 * Na              4      0.00000             -0.00000             -0.01765         *
 * Na              5      0.00000              0.00000              0.01765         *
 * Na              6     -0.00000              0.00000              0.01765         *
 * Na              7     -0.00000              0.00000             -0.01765         *
 * Na              8      0.00000             -0.00000             -0.01766         *
 * Na              9      0.00000             -0.00000              0.01765         *
 * Na             10     -0.00000             -0.00000              0.01765         *
 * Na             11     -0.00000             -0.00000             -0.01766         *
 * Na             12      0.00000             -0.00000             -0.01765         *
 * Na             13     -0.00000             -0.00000              0.01766         *
 * Na             14      0.00000              0.00000              0.01766         *
 * Na             15      0.00000             -0.00000             -0.01765         *
 * Na             16     -0.00000              0.00000             -0.01765         *
 * S               1     -0.00001              0.00000             -0.00004         *
 * S               2      0.00003             -0.00002              0.00007         *
 * S               3     -0.00001              0.00003             -0.00000         *
 * S               4     -0.00000             -0.00009             -0.00006         *
 * S               5     -0.00001              0.00003              0.00005         *
 * S               6     -0.00004              0.00003              0.00001         *
 * S               7     -0.00000              0.00004             -0.00000         *
 * S               8      0.00001             -0.00003              0.00001         *
 *                                                                                  *
 ************************************************************************************
 
 ***************** Stress Tensor *****************
 *                                               *
 *          Cartesian components (GPa)           *
 * --------------------------------------------- *
 *             x             y             z     *
 *                                               *
 *  x     -1.032247      0.000031      0.000026  *
 *  y      0.000031     -0.877970      0.000005  *
 *  z      0.000026      0.000005     -0.966869  *
 *                                               *
 *  Pressure:    0.9590                          *
 *                                               *
 *************************************************
  
 +------------+-------------+-------------+-----------------+ <-- min BFGS
 |    Step    |   lambda    |   F.delta'  |    enthalpy     | <-- min BFGS
 +------------+-------------+-------------+-----------------+ <-- min BFGS
 |  previous  |    0.000000 |    4.449979 |   -37200.111531 | <-- min BFGS
 | trial step |    1.000000 |    2.132796 |   -37201.346376 | <-- min BFGS
 |  line step |    1.920427 |    0.262770 |   -37201.764573 | <-- min BFGS
 +------------+-------------+-------------+-----------------+ <-- min BFGS
  
 BFGS: finished iteration     1 with enthalpy= -3.72017646E+004 eV
  
 +-----------+-----------------+-----------------+------------+-----+ <-- BFGS
 | Parameter |      value      |    tolerance    |    units   | OK? | <-- BFGS
 +-----------+-----------------+-----------------+------------+-----+ <-- BFGS
 |  dE/ion   |   2.951860E-002 |   2.000000E-005 |         eV | No  | <-- BFGS
 |  |F|max   |   5.024988E-002 |   5.000000E-002 |       eV/A | No  | <-- BFGS
 |  |dR|max  |   2.147051E-002 |   1.000000E-003 |          A | No  | <-- BFGS
 |   Smax    |   1.032247E+000 |   1.000000E-001 |        GPa | No  | <-- BFGS
 +-----------+-----------------+-----------------+------------+-----+ <-- BFGS
  

================================================================================
 Starting BFGS iteration          2 ...
================================================================================
  
 +------------+-------------+-------------+-----------------+ <-- min BFGS
 |    Step    |   lambda    |   F.delta'  |    enthalpy     | <-- min BFGS
 +------------+-------------+-------------+-----------------+ <-- min BFGS
 |  previous  |    0.000000 |    0.284845 |   -37201.764573 | <-- min BFGS
 +------------+-------------+-------------+-----------------+ <-- min BFGS
  

--------------------------------------------------------------------------------
 BFGS: starting iteration         2 with trial guess (lambda=  1.000000)
--------------------------------------------------------------------------------
 
+---------------- MEMORY AND SCRATCH DISK ESTIMATES PER PROCESS --------------+
|                                                     Memory          Disk    |
| Model and support data                             2251.3 MB         0.0 MB |
| Electronic energy minimisation requirements        1320.3 MB         0.0 MB |
| Geometry minimisation requirements                 1735.9 MB         0.0 MB |
|                                               ----------------------------- |
| Approx. total storage required per process         5307.6 MB         0.0 MB |
|                                                                             |
| Requirements will fluctuate during execution and may exceed these estimates |
+-----------------------------------------------------------------------------+
 
 
                           -------------------------------
                                      Unit Cell
                           -------------------------------
        Real Lattice(A)              Reciprocal Lattice(1/A)
   5.9413067  -0.0000000  -0.0000000        1.0575427   0.0000000   0.0000000
  -0.0000001  12.4673433  -0.0000000        0.0000000   0.5039715   0.0000000
  -0.0000001  -0.0000000   9.9549080        0.0000000   0.0000000   0.6311646
 
                       Lattice parameters(A)       Cell Angles
                    a =    5.941307          alpha =   90.000000
                    b =   12.467343          beta  =   90.000001
                    c =    9.954908          gamma =   90.000001
 
                Current cell volume =  737.383036 A**3
 
                           -------------------------------
                                     Cell Contents
                           -------------------------------
 
            xxxxxxxxxxxxxxxxxxxxxxxxxxxxxxxxxxxxxxxxxxxxxxxxxxxxxxxxxxxxxxxxx
            x  Element         Atom        Fractional coordinates of atoms  x
            x                 Number           u          v          w      x
            x---------------------------------------------------------------x
            x  O                 1         0.272498   0.056201   0.034975   x
            x  O                 2         0.977502   0.193799   0.034975   x
            x  O                 3         0.772498   0.556201   0.034975   x
            x  O                 4         0.477502   0.693799   0.034975   x
            x  O                 5         0.977502   0.056201   0.215025   x
            x  O                 6         0.272498   0.193799   0.215025   x
            x  O                 7         0.477502   0.556201   0.215025   x
            x  O                 8         0.772498   0.693799   0.215025   x
            x  O                 9         0.727502   0.306201   0.284975   x
            x  O                10         0.022498   0.443799   0.284975   x
            x  O                11         0.227502   0.806201   0.284975   x
            x  O                12         0.522498   0.943799   0.284975   x
            x  O                13         0.022498   0.306201   0.465025   x
            x  O                14         0.727502   0.443799   0.465025   x
            x  O                15         0.522498   0.806201   0.465025   x
            x  O                16         0.227502   0.943799   0.465025   x
            x  O                17         0.772498   0.056201   0.534975   x
            x  O                18         0.477502   0.193799   0.534975   x
            x  O                19         0.272498   0.556201   0.534975   x
            x  O                20         0.977502   0.693799   0.534975   x
            x  O                21         0.477502   0.056201   0.715025   x
            x  O                22         0.772498   0.193799   0.715025   x
            x  O                23         0.977502   0.556201   0.715025   x
            x  O                24         0.272498   0.693799   0.715025   x
            x  O                25         0.227502   0.306201   0.784975   x
            x  O                26         0.522498   0.443799   0.784975   x
            x  O                27         0.727502   0.806201   0.784975   x
            x  O                28         0.022498   0.943799   0.784975   x
            x  O                29         0.522498   0.306201   0.965025   x
            x  O                30         0.227502   0.443799   0.965025   x
            x  O                31         0.022498   0.806201   0.965025   x
            x  O                32         0.727502   0.943799   0.965025   x
            x  Na                1         0.875000   0.375000   0.058612   x
            x  Na                2         0.375000   0.875000   0.058612   x
            x  Na                3         0.375000   0.375000   0.191388   x
            x  Na                4         0.875000   0.875000   0.191388   x
            x  Na                5         0.625000   0.125000   0.308612   x
            x  Na                6         0.125000   0.625000   0.308612   x
            x  Na                7         0.125000   0.125000   0.441388   x
            x  Na                8         0.625000   0.625000   0.441388   x
            x  Na                9         0.375000   0.375000   0.558612   x
            x  Na               10         0.875000   0.875000   0.558612   x
            x  Na               11         0.875000   0.375000   0.691388   x
            x  Na               12         0.375000   0.875000   0.691388   x
            x  Na               13         0.125000   0.125000   0.808612   x
            x  Na               14         0.625000   0.625000   0.808612   x
            x  Na               15         0.625000   0.125000   0.941388   x
            x  Na               16         0.125000   0.625000   0.941388   x
            x  S                 1         0.125000   0.125000   0.125000   x
            x  S                 2         0.625000   0.625000   0.125000   x
            x  S                 3         0.875000   0.375000   0.375000   x
            x  S                 4         0.375000   0.875000   0.375000   x
            x  S                 5         0.625000   0.125000   0.625000   x
            x  S                 6         0.125000   0.625000   0.625000   x
            x  S                 7         0.375000   0.375000   0.875000   x
            x  S                 8         0.875000   0.875000   0.875000   x
            xxxxxxxxxxxxxxxxxxxxxxxxxxxxxxxxxxxxxxxxxxxxxxxxxxxxxxxxxxxxxxxxx
 
 
------------------------------------------------------------------------ <-- SCF
SCF loop      Energy           Fermi           Energy gain       Timer   <-- SCF
                               energy          per atom          (sec)   <-- SCF
------------------------------------------------------------------------ <-- SCF
Initial  -3.72017205E+004  0.00000000E+000                      4684.95  <-- SCF
      1  -3.72018318E+004  8.65099661E-001   1.98891583E-003    4815.72  <-- SCF
      2  -3.72018327E+004  8.65099027E-001   1.45348096E-005    4956.27  <-- SCF
      3  -3.72017792E+004  9.28604795E-001  -9.54074339E-004    5091.81  <-- SCF
      4  -3.72017768E+004  9.32324519E-001  -4.36416427E-005    5226.81  <-- SCF
      5  -3.72017763E+004  9.31506039E-001  -8.70396569E-006    5317.32  <-- SCF
      6  -3.72017762E+004  9.31060389E-001  -7.87577134E-007    5407.46  <-- SCF
------------------------------------------------------------------------ <-- SCF
 
Final energy, E             =  -37201.77624814     eV
Final free energy (E-TS)    =  -37201.77624814     eV
(energies not corrected for finite basis set)
 
NB est. 0K energy (E-0.5TS)      =  -37201.77624814     eV
 
 
 ******************************** Constrained Forces ********************************
 *                                                                                  *
 *                           Cartesian components (eV/A)                            *
 * -------------------------------------------------------------------------------- *
 *                         x                    y                    z              *
 *                                                                                  *
 * O               1     -0.03184              0.06602              0.01997         *
 * O               2      0.03184             -0.06603              0.01998         *
 * O               3     -0.03186              0.06605              0.01999         *
 * O               4      0.03185             -0.06603              0.01998         *
 * O               5      0.03184              0.06602             -0.01997         *
 * O               6     -0.03184             -0.06602             -0.01997         *
 * O               7      0.03187              0.06606             -0.02000         *
 * O               8     -0.03188             -0.06605             -0.02000         *
 * O               9      0.03183              0.06601              0.01997         *
 * O              10     -0.03183             -0.06602              0.01997         *
 * O              11      0.03188              0.06607              0.02002         *
 * O              12     -0.03186             -0.06605              0.02000         *
 * O              13     -0.03183              0.06601             -0.01996         *
 * O              14      0.03184             -0.06602             -0.01997         *
 * O              15     -0.03187              0.06605             -0.02000         *
 * O              16      0.03185             -0.06603             -0.01998         *
 * O              17     -0.03182              0.06600              0.01995         *
 * O              18      0.03182             -0.06601              0.01996         *
 * O              19     -0.03189              0.06607              0.02002         *
 * O              20      0.03190             -0.06608              0.02003         *
 * O              21      0.03183              0.06601             -0.01996         *
 * O              22     -0.03183             -0.06602             -0.01997         *
 * O              23      0.03190              0.06608             -0.02003         *
 * O              24     -0.03189             -0.06607             -0.02002         *
 * O              25      0.03187              0.06605              0.02000         *
 * O              26     -0.03188             -0.06606              0.02001         *
 * O              27      0.03185              0.06603              0.01997         *
 * O              28     -0.03184             -0.06602              0.01997         *
 * O              29     -0.03186              0.06605             -0.02000         *
 * O              30      0.03188             -0.06606             -0.02001         *
 * O              31     -0.03184              0.06603             -0.01998         *
 * O              32      0.03184             -0.06602             -0.01997         *
 * Na              1      0.00000             -0.00000              0.02705         *
 * Na              2     -0.00000              0.00000              0.02705         *
 * Na              3      0.00000             -0.00000             -0.02705         *
 * Na              4      0.00000              0.00000             -0.02705         *
 * Na              5      0.00000              0.00000              0.02705         *
 * Na              6     -0.00000             -0.00000              0.02705         *
 * Na              7     -0.00000              0.00000             -0.02705         *
 * Na              8      0.00000             -0.00000             -0.02705         *
 * Na              9      0.00000             -0.00000              0.02705         *
 * Na             10     -0.00000              0.00000              0.02705         *
 * Na             11     -0.00000             -0.00000             -0.02705         *
 * Na             12      0.00000              0.00000             -0.02704         *
 * Na             13     -0.00000             -0.00000              0.02705         *
 * Na             14      0.00000              0.00000              0.02705         *
 * Na             15      0.00000             -0.00000             -0.02705         *
 * Na             16     -0.00000              0.00000             -0.02705         *
 * S               1     -0.00001              0.00001             -0.00002         *
 * S               2      0.00002             -0.00001              0.00004         *
 * S               3     -0.00001              0.00001             -0.00001         *
 * S               4     -0.00000             -0.00004             -0.00004         *
 * S               5     -0.00000              0.00002              0.00002         *
 * S               6     -0.00002              0.00001              0.00001         *
 * S               7     -0.00001              0.00002              0.00000         *
 * S               8     -0.00000             -0.00001              0.00000         *
[...]
 * O              27     -0.00774             -0.01615             -0.00576         *
 * O              28      0.00756              0.01572             -0.00545         *
 * O              29      0.00775             -0.01602              0.00559         *
 * O              30     -0.00776              0.01607              0.00563         *
 * O              31      0.00766             -0.01595              0.00551         *
 * O              32     -0.00771              0.01601              0.00571         *
 * Na              1      0.00000              0.00004              0.02335         *
 * Na              2      0.00000              0.00001              0.02338         *
 * Na              3      0.00001              0.00003             -0.02335         *
 * Na              4      0.00001              0.00001             -0.02332         *
 * Na              5     -0.00000             -0.00000              0.02336         *
 * Na              6      0.00001              0.00001              0.02334         *
 * Na              7      0.00001             -0.00001             -0.02334         *
 * Na              8      0.00001              0.00002             -0.02335         *
 * Na              9      0.00001             -0.00002              0.02334         *
 * Na             10     -0.00000              0.00004              0.02334         *
 * Na             11      0.00000             -0.00002             -0.02333         *
 * Na             12      0.00002              0.00003             -0.02334         *
 * Na             13      0.00002              0.00002              0.02334         *
 * Na             14      0.00002             -0.00000              0.02338         *
 * Na             15     -0.00000              0.00001             -0.02333         *
 * Na             16      0.00000              0.00000             -0.02331         *
 * S               1     -0.00029             -0.00024              0.00018         *
 * S               2      0.00006             -0.00028             -0.00042         *
 * S               3      0.00037             -0.00005             -0.00011         *
 * S               4      0.00017              0.00006             -0.00012         *
 * S               5     -0.00067             -0.00026             -0.00012         *
 * S               6     -0.00016             -0.00019             -0.00062         *
 * S               7      0.00003             -0.00004              0.00043         *
 * S               8      0.00013              0.00011             -0.00007         *
 *                                                                                  *
 ************************************************************************************
 
 ***************** Stress Tensor *****************
 *                                               *
 *          Cartesian components (GPa)           *
 * --------------------------------------------- *
 *             x             y             z     *
 *                                               *
 *  x      0.039234     -0.000239     -0.000133  *
 *  y     -0.000239      0.045113     -0.000395  *
 *  z     -0.000133     -0.000395     -0.010826  *
 *                                               *
 *  Pressure:   -0.0245                          *
 *                                               *
 *************************************************
 
 Pseudo atomic calculation performed for O 2s2 2p4
 
 Converged in 12 iterations to a total energy of -431.3437 eV
 
 
 Pseudo atomic calculation performed for Na 2s2 2p6 3s1
 
 Converged in 19 iterations to a total energy of -1293.0763 eV
 
 
 Pseudo atomic calculation performed for S 3s2 3p4
 
 Converged in 19 iterations to a total energy of -299.4518 eV
 
Charge spilling parameter for spin component 1 = 0.98%
 
     Atomic Populations (Mulliken)
     -----------------------------
Species          Ion     s      p      d      f     Total  Charge (e)
=====================================================================
  O               1     1.88   5.02   0.00   0.00   6.90    -0.90
  O               2     1.88   5.02   0.00   0.00   6.90    -0.90
  O               3     1.88   5.02   0.00   0.00   6.90    -0.90
  O               4     1.88   5.02   0.00   0.00   6.90    -0.90
  O               5     1.88   5.02   0.00   0.00   6.90    -0.90
  O               6     1.88   5.02   0.00   0.00   6.90    -0.90
  O               7     1.88   5.02   0.00   0.00   6.90    -0.90
  O               8     1.88   5.02   0.00   0.00   6.90    -0.90
  O               9     1.88   5.02   0.00   0.00   6.90    -0.90
  O              10     1.88   5.02   0.00   0.00   6.90    -0.90
  O              11     1.88   5.02   0.00   0.00   6.90    -0.90
  O              12     1.88   5.02   0.00   0.00   6.90    -0.90
  O              13     1.88   5.02   0.00   0.00   6.90    -0.90
  O              14     1.88   5.02   0.00   0.00   6.90    -0.90
  O              15     1.88   5.02   0.00   0.00   6.90    -0.90
  O              16     1.88   5.02   0.00   0.00   6.90    -0.90
  O              17     1.88   5.02   0.00   0.00   6.90    -0.90
  O              18     1.88   5.02   0.00   0.00   6.90    -0.90
  O              19     1.88   5.02   0.00   0.00   6.90    -0.90
  O              20     1.88   5.02   0.00   0.00   6.90    -0.90
  O              21     1.88   5.02   0.00   0.00   6.90    -0.90
  O              22     1.88   5.02   0.00   0.00   6.90    -0.90
  O              23     1.88   5.02   0.00   0.00   6.90    -0.90
  O              24     1.88   5.02   0.00   0.00   6.90    -0.90
  O              25     1.88   5.02   0.00   0.00   6.90    -0.90
  O              26     1.88   5.02   0.00   0.00   6.90    -0.90
  O              27     1.88   5.02   0.00   0.00   6.90    -0.90
  O              28     1.88   5.02   0.00   0.00   6.90    -0.90
  O              29     1.88   5.02   0.00   0.00   6.90    -0.90
  O              30     1.88   5.02   0.00   0.00   6.90    -0.90
  O              31     1.88   5.02   0.00   0.00   6.90    -0.90
  O              32     1.88   5.02   0.00   0.00   6.90    -0.90
  Na              1     2.13   6.11   0.00   0.00   8.24     0.76
  Na              2     2.13   6.11   0.00   0.00   8.24     0.76
  Na              3     2.13   6.11   0.00   0.00   8.24     0.76
  Na              4     2.13   6.11   0.00   0.00   8.24     0.76
  Na              5     2.13   6.11   0.00   0.00   8.24     0.76
  Na              6     2.13   6.11   0.00   0.00   8.24     0.76
  Na              7     2.13   6.11   0.00   0.00   8.24     0.76
  Na              8     2.13   6.11   0.00   0.00   8.24     0.76
  Na              9     2.13   6.11   0.00   0.00   8.24     0.76
  Na             10     2.13   6.11   0.00   0.00   8.24     0.76
  Na             11     2.13   6.11   0.00   0.00   8.24     0.76
  Na             12     2.13   6.11   0.00   0.00   8.24     0.76
  Na             13     2.13   6.11   0.00   0.00   8.24     0.76
  Na             14     2.13   6.11   0.00   0.00   8.24     0.76
  Na             15     2.13   6.11   0.00   0.00   8.24     0.76
  Na             16     2.13   6.11   0.00   0.00   8.24     0.76
  S               1     1.24   2.67   0.00   0.00   3.91     2.09
  S               2     1.24   2.67   0.00   0.00   3.91     2.09
  S               3     1.24   2.67   0.00   0.00   3.91     2.09
  S               4     1.24   2.67   0.00   0.00   3.91     2.09
  S               5     1.24   2.67   0.00   0.00   3.91     2.09
  S               6     1.24   2.67   0.00   0.00   3.91     2.09
  S               7     1.24   2.67   0.00   0.00   3.91     2.09
  S               8     1.24   2.67   0.00   0.00   3.91     2.09
=====================================================================
 
                 Bond                   Population      Length (A)
======================================================================
              O 22 -- S 5                    0.59        1.51844
              O 8  -- S 2                    0.59        1.51844
              O 17 -- S 5                    0.59        1.51844
              O 7  -- S 2                    0.59        1.51844
              O 4  -- S 2                    0.59        1.51845
              O 24 -- S 6                    0.59        1.51845
              O 18 -- S 5                    0.59        1.51845
              O 11 -- S 4                    0.59        1.51845
              O 6  -- S 1                    0.59        1.51845
              O 9  -- S 3                    0.59        1.51845
              O 25 -- S 7                    0.59        1.51845
              O 21 -- S 5                    0.59        1.51845
              O 26 -- S 7                    0.59        1.51845
              O 16 -- S 4                    0.59        1.51845
              O 14 -- S 3                    0.59        1.51845
              O 1  -- S 1                    0.59        1.51845
              O 3  -- S 2                    0.59        1.51845
              O 27 -- S 8                    0.59        1.51846
              O 12 -- S 4                    0.59        1.51846
              O 23 -- S 6                    0.59        1.51846
              O 15 -- S 4                    0.59        1.51846
              O 13 -- S 3                    0.59        1.51846
              O 2  -- S 1                    0.59        1.51846
              O 32 -- S 8                    0.59        1.51846
              O 5  -- S 1                    0.59        1.51846
              O 10 -- S 3                    0.59        1.51846
              O 19 -- S 6                    0.59        1.51846
              O 30 -- S 7                    0.59        1.51846
              O 31 -- S 8                    0.59        1.51846
              O 20 -- S 6                    0.59        1.51846
              O 29 -- S 7                    0.59        1.51846
              O 28 -- S 8                    0.59        1.51847
              O 28 -- Na 13                  0.16        2.37454
              O 32 -- Na 15                  0.16        2.37455
              O 23 -- Na 11                  0.16        2.37455
              O 12 -- Na 5                   0.16        2.37455
              O 27 -- Na 14                  0.16        2.37455
              O 6  -- Na 3                   0.16        2.37455
              O 8  -- Na 4                   0.16        2.37455
              O 10 -- Na 6                   0.16        2.37455
              O 5  -- Na 4                   0.16        2.37455
              O 2  -- Na 1                   0.16        2.37455
              O 15 -- Na 8                   0.16        2.37455
              O 13 -- Na 7                   0.16        2.37455
              O 26 -- Na 14                  0.16        2.37455
              O 21 -- Na 12                  0.16        2.37455
              O 4  -- Na 2                   0.16        2.37455
              O 25 -- Na 13                  0.16        2.37455
              O 9  -- Na 5                   0.16        2.37455
              O 11 -- Na 6                   0.16        2.37455
              O 1  -- Na 2                   0.16        2.37455
              O 29 -- Na 15                  0.16        2.37455
              O 31 -- Na 16                  0.16        2.37455
              O 20 -- Na 10                  0.16        2.37455
              O 30 -- Na 16                  0.16        2.37455
              O 19 -- Na 9                   0.16        2.37455
              O 14 -- Na 8                   0.16        2.37455
              O 16 -- Na 7                   0.16        2.37455
              O 24 -- Na 12                  0.16        2.37456
              O 7  -- Na 3                   0.16        2.37456
              O 18 -- Na 9                   0.16        2.37456
              O 22 -- Na 11                  0.16        2.37457
              O 3  -- Na 1                   0.16        2.37457
              O 17 -- Na 10                  0.16        2.37457
              O 17 -- O 18                  -0.16        2.44966
              O 7  -- O 8                   -0.16        2.44966
              O 21 -- O 22                  -0.16        2.44966
              O 3  -- O 4                   -0.16        2.44966
              O 23 -- O 24                  -0.16        2.44967
              O 25 -- O 26                  -0.16        2.44967
              O 11 -- O 12                  -0.16        2.44967
              O 5  -- O 6                   -0.16        2.44967
              O 9  -- O 10                  -0.16        2.44967
              O 15 -- O 16                  -0.16        2.44968
              O 1  -- O 2                   -0.16        2.44968
              O 13 -- O 14                  -0.16        2.44968
              O 19 -- O 20                  -0.16        2.44968
              O 29 -- O 30                  -0.16        2.44968
              O 31 -- O 32                  -0.16        2.44969
              O 27 -- O 28                  -0.16        2.44969
              O 32 -- Na 2                   0.09        2.47122
              O 31 -- Na 2                   0.09        2.47122
              O 10 -- Na 3                   0.09        2.47122
              O 18 -- Na 7                   0.09        2.47122
              O 19 -- Na 8                   0.09        2.47122
              O 30 -- Na 1                   0.09        2.47122
              O 20 -- Na 8                   0.09        2.47122
              O 29 -- Na 1                   0.09        2.47122
              O 5  -- Na 5                   0.09        2.47122
              O 24 -- Na 14                  0.09        2.47122
              O 15 -- Na 10                  0.09        2.47123
              O 13 -- Na 9                   0.09        2.47123
              O 2  -- Na 15                  0.09        2.47123
              O 3  -- Na 16                  0.09        2.47123
              O 23 -- Na 14                  0.09        2.47123
              O 12 -- Na 4                   0.09        2.47123
              O 28 -- Na 12                  0.09        2.47123
              O 27 -- Na 12                  0.09        2.47123
              O 9  -- Na 3                   0.09        2.47123
              O 16 -- Na 10                  0.09        2.47123
              O 1  -- Na 15                  0.09        2.47123
              O 14 -- Na 9                   0.09        2.47123
              O 4  -- Na 16                  0.09        2.47123
              O 17 -- Na 7                   0.09        2.47123
              O 21 -- Na 13                  0.09        2.47123
              O 26 -- Na 11                  0.09        2.47123
              O 25 -- Na 11                  0.09        2.47123
              O 11 -- Na 4                   0.09        2.47123
              O 6  -- Na 5                   0.09        2.47123
              O 7  -- Na 6                   0.09        2.47124
              O 8  -- Na 6                   0.09        2.47124
              O 22 -- Na 13                  0.09        2.47124
              O 17 -- O 22                  -0.15        2.47842
              O 3  -- O 8                   -0.15        2.47843
              O 4  -- O 7                   -0.15        2.47843
              O 18 -- O 21                  -0.15        2.47844
              O 19 -- O 24                  -0.15        2.47844
              O 11 -- O 16                  -0.15        2.47844
              O 1  -- O 6                   -0.15        2.47844
              O 9  -- O 14                  -0.15        2.47844
              O 27 -- O 32                  -0.15        2.47844
              O 12 -- O 15                  -0.15        2.47844
              O 25 -- O 30                  -0.15        2.47845
              O 20 -- O 23                  -0.15        2.47845
              O 2  -- O 5                   -0.15        2.47845
              O 10 -- O 13                  -0.15        2.47845
              O 26 -- O 29                  -0.15        2.47845
              O 28 -- O 31                  -0.15        2.47847
              O 3  -- O 7                   -0.13        2.51037
              O 18 -- O 22                  -0.13        2.51038
              O 4  -- O 8                   -0.13        2.51038
              O 17 -- O 21                  -0.13        2.51038
              O 12 -- O 16                  -0.13        2.51039
              O 11 -- O 15                  -0.13        2.51039
              O 9  -- O 13                  -0.13        2.51039
              O 2  -- O 6                   -0.13        2.51039
              O 26 -- O 30                  -0.13        2.51040
              O 10 -- O 14                  -0.13        2.51040
              O 1  -- O 5                   -0.13        2.51040
              O 25 -- O 29                  -0.13        2.51040
              O 19 -- O 23                  -0.13        2.51040
              O 27 -- O 31                  -0.13        2.51040
              O 20 -- O 24                  -0.13        2.51040
              O 28 -- O 32                  -0.13        2.51040
              O 31 -- Na 4                   0.09        2.57582
              O 20 -- Na 6                   0.09        2.57582
              O 10 -- Na 1                   0.09        2.57582
              O 5  -- Na 7                   0.09        2.57582
              O 19 -- Na 6                   0.09        2.57583
              O 17 -- Na 5                   0.09        2.57583
              O 3  -- Na 14                  0.09        2.57583
              O 28 -- Na 10                  0.09        2.57583
              O 18 -- Na 5                   0.09        2.57583
              O 24 -- Na 16                  0.09        2.57583
              O 4  -- Na 14                  0.09        2.57583
              O 26 -- Na 9                   0.09        2.57583
              O 21 -- Na 15                  0.09        2.57583
              O 25 -- Na 9                   0.09        2.57583
              O 9  -- Na 1                   0.09        2.57583
              O 6  -- Na 7                   0.09        2.57583
              O 1  -- Na 13                  0.09        2.57583
              O 16 -- Na 12                  0.09        2.57583
              O 14 -- Na 11                  0.09        2.57583
              O 2  -- Na 13                  0.09        2.57583
              O 15 -- Na 12                  0.09        2.57583
              O 13 -- Na 11                  0.09        2.57583
              O 29 -- Na 3                   0.09        2.57583
              O 23 -- Na 16                  0.09        2.57583
              O 27 -- Na 10                  0.09        2.57583
              O 7  -- Na 8                   0.09        2.57583
              O 22 -- Na 15                  0.09        2.57583
              O 30 -- Na 3                   0.09        2.57583
              O 32 -- Na 4                   0.09        2.57584
              O 11 -- Na 2                   0.09        2.57584
              O 8  -- Na 8                   0.09        2.57584
              O 12 -- Na 2                   0.09        2.57584
======================================================================
 

Writing analysis data to 2895.castep_bin

Writing model to 2895.check
 
 A BibTeX formatted list of references used in this run has been written to 
 2895.bib
 
Initialisation time =     12.81 s
Calculation time    =   1411.37 s
Finalisation time   =      5.67 s
Total time          =   1429.86 s
Peak Memory Use     = 3935080 kB
  
Overall parallel efficiency rating: Excellent (99%)                             
  
Data was distributed by:-
k-point (4-way); efficiency rating: Excellent (99%)                             
