 +-------------------------------------------------+
 |                                                 |
 |      CCC   AA    SSS  TTTTT  EEEEE  PPPP        |
 |     C     A  A  S       T    E      P   P       |
 |     C     AAAA   SS     T    EEE    PPPP        |
 |     C     A  A     S    T    E      P           |
 |      CCC  A  A  SSS     T    EEEEE  P           |
 |                                                 |
 +-------------------------------------------------+
 |                                                 |
 | Welcome to Academic Release CASTEP version 17.21|          
 | Ab Initio Total Energy Program                  |
 |                                                 |
 | Authors:                                        |
 | M. Segall, M. Probert, C. Pickard, P. Hasnip,   |
 | S. Clark, K. Refson, J. R. Yates, M. Payne      |
 |                                                 |
 | Contributors:                                   |
 | P. Lindan, P. Haynes, J. White, V. Milman,      |
 | N. Govind, M. Gibson, P. Tulip, V. Cocula,      |
 | B. Montanari, D. Quigley, M. Glover,            |
 | L. Bernasconi, A. Perlov, M. Plummer,           |
 | E. McNellis, J. Meyer, J. Gale, D. Jochym       |
 | J. Aarons, B. Walker, R. Gillen, D. Jones       |
 | T. Green, I. J. Bush, C. J. Armstrong,          |
 | E. J. Higgins, E. L. Brown, M. S. McFly,        |
 | J. Wilkins, B-C. Shih, P. J. P. Byrne           |
 |                                                 |
 | Copyright (c) 2000 - 2017                       |
 |                                                 |
 |     Distributed under the terms of an           |
 |     Agreement between the United Kingdom        |
 |     Car-Parrinello (UKCP) Consortium,           |
 |     Daresbury Laboratory and Accelrys, Inc.     |
 |                                                 |
 | Please cite                                     |
 |                                                 |
 |     "First principles methods using CASTEP"     |
 |                                                 |
 |         Zeitschrift fuer Kristallographie       |
 |           220(5-6) pp. 567-570 (2005)           |
 |                                                 |
 | S. J. Clark, M. D. Segall, C. J. Pickard,       |
 | P. J. Hasnip, M. J. Probert, K. Refson,         |
 | M. C. Payne                                     |
 |                                                 |
 |       in all publications arising from          |
 |              your use of CASTEP                 |
 |                                                 |
 +-------------------------------------------------+
 
 
 Compiled for linux_x86_64_ifort17 on Fri, 08 Sep 2017 17:58:23 +0100
 from code version 
 056e886bd5a1+ Castep172_branch Mon, 15 May 2017 14:45:35 +0100
 Compiler: Intel Fortran 17.0.2.174; Optimisation: fast
 MATHLIBS: Intel MKL(2017.0.2) (LAPACK version 3.7.0)
 FFT Lib : mkl
 Fundamental constants values: CODATA 2010
 
 Run started: Thu, 04 Jul 2019 12:58:14 +0100
 
 Atomic calculation performed for S: 1s2 2s2 2p6 3s2 3p4
 
 Converged in 57 iterations to an ae energy of -10858.586 eV
 
   ============================================================                
   | Pseudopotential Report - Date of generation  4-07-2019   |                
   ------------------------------------------------------------                
   | Element: S Ionic charge:  6.00 Level of theory: PBE      |                
   | Atomic Solver: Koelling-Harmon                           |                
   |                                                          |                
   |               Reference Electronic Structure             |                
   |         Orbital         Occupation         Energy        |                
   |            3s              2.000           -0.634        |                
   |            3p              4.000           -0.258        |                
   |                                                          |                
   |                 Pseudopotential Definition               |                
   |        Beta     l      e      Rc     scheme   norm       |                
   |          1      0   -0.634   1.796     qc      0         |                
   |          2      0    0.250   1.796     qc      0         |                
   |          3      1   -0.258   1.796     qc      0         |                
   |          4      1    0.250   1.796     qc      0         |                
   |          5      2    0.000   1.796     qc      0         |                
   |          6      2    0.250   1.796     qc      0         |                
   |         loc     3    0.000   1.796     pn      0         |                
   |                                                          |                
   | Augmentation charge Rinner = 1.255                       |                
   | Partial core correction Rc = 1.255                       |                
   ------------------------------------------------------------                
   | "3|1.8|5|6|7|30:31:32(qc=5)"                             |                
   ------------------------------------------------------------                
   |      Author: Chris J. Pickard, Cambridge University      |                
   ============================================================                
 
 Pseudo atomic calculation performed for S 3s2 3p4
 
 Converged in 19 iterations to a total energy of -299.4518 eV
 
 Calculation parallelised over 4 processes.
 Data is distributed by k-point(4-way)

 ************************************ Title ************************************
 

 ***************************** General Parameters ******************************
  
 output verbosity                               : normal  (1)
 write checkpoint data to                       : 419593.check
 type of calculation                            : geometry optimization
 stress calculation                             : on
 density difference calculation                 : on
 electron localisation func (ELF) calculation   : off
 Hirshfeld analysis                             : off
 unlimited duration calculation
 timing information                             : on
 memory usage estimate                          : on
 write final potential to formatted file        : off
 write final density to formatted file          : on
 write BibTeX reference list                    : on
 write OTFG pseudopotential files               : on
 write electrostatic potential file             : on
 write bands file                               : on
 checkpoint writing                             : both castep_bin and check files
  
 output         length unit                     : A
 output           mass unit                     : amu
 output           time unit                     : ps
 output         charge unit                     : e
 output           spin unit                     : hbar/2
 output         energy unit                     : eV
 output          force unit                     : eV/A
 output       velocity unit                     : A/ps
 output       pressure unit                     : GPa
 output     inv_length unit                     : 1/A
 output      frequency unit                     : cm-1
 output force constant unit                     : eV/A**2
 output         volume unit                     : A**3
 output   IR intensity unit                     : (D/A)**2/amu
 output         dipole unit                     : D
 output         efield unit                     : eV/A/e
 output        entropy unit                     : J/mol/K
  
 wavefunctions paging                           : none
 random number generator seed                   : randomised (125814354)
 data distribution                              : optimal for this architecture
 optimization strategy                          : maximize speed(+++)

 *********************** Exchange-Correlation Parameters ***********************
  
 using functional                               : Perdew Burke Ernzerhof
 relativistic treatment                         : Koelling-Harmon
 DFT+D: Semi-empirical dispersion correction    : off

 ************************* Pseudopotential Parameters **************************
  
 pseudopotential representation                 : reciprocal space
 <beta|phi> representation                      : reciprocal space
 spin-orbit coupling                            : off

 **************************** Basis Set Parameters *****************************
  
 plane wave basis set cut-off                   :   800.0000   eV
 size of standard grid                          :     2.0000
 size of   fine   gmax                          :    28.9810   1/A
 finite basis set correction                    : none

 **************************** Electronic Parameters ****************************
  
 number of  electrons                           :  288.0    
 net charge of system                           :  0.000    
 treating system as non-spin-polarized
 number of bands                                :        173

 ********************* Electronic Minimization Parameters **********************
  
 Method: Treating system as metallic with density mixing treatment of electrons,
         and number of  SD  steps               :          1
         and number of  CG  steps               :          4
  
 total energy / atom convergence tol.           : 0.1000E-04   eV
 eigen-energy convergence tolerance             : 0.1000E-05   eV
 max force / atom convergence tol.              : ignored
 convergence tolerance window                   :          3   cycles
 max. number of SCF cycles                      :         30
 number of fixed-spin iterations                :         10
 smearing scheme                                : Gaussian
 smearing width                                 : 0.2000       eV
 Fermi energy convergence tolerance             : 0.2721E-13   eV
 periodic dipole correction                     : NONE

 ************************** Density Mixing Parameters **************************
  
 density-mixing scheme                          : Pulay
 max. length of mixing history                  :         20
 charge density mixing amplitude                : 0.4000    
 cut-off energy for mixing                      :  800.0       eV

 *********************** Population Analysis Parameters ************************
  
 Population analysis with cutoff                :  3.000       A

 ********************** Geometry Optimization Parameters ***********************
  
 optimization method                            : BFGS
 variable cell method                           : fixed basis quality
 max. number of steps                           :          2
 estimated bulk modulus                         :  500.0       GPa
 estimated <frequency>                          :  1668.       cm-1
 geom line minimiser                            : on
 with line minimiser tolerance                  :     0.4000
 total energy convergence tolerance             : 0.2000E-04   eV/atom
        max ionic |force| tolerance             : 0.5000E-01   eV/A
 max ionic |displacement| tolerance             : 0.1000E-02   A
   max |stress component| tolerance             : 0.1000       GPa
 convergence tolerance window                   :          2   steps
 backup results every                           :          5   steps
 write geom trajectory file                     : on

 *******************************************************************************
  
 
                           -------------------------------
                                      Unit Cell
                           -------------------------------
        Real Lattice(A)                      Reciprocal Lattice(1/A)
  12.2501000   0.0000000   0.0000000        0.5129089   0.0045919   0.0887960
  -0.1042970  11.6497431   0.0000000        0.0000000   0.5393411  -0.0000110
  -2.0927722   0.0002465  12.0883843        0.0000000   0.0000000   0.5197705
 
                       Lattice parameters(A)       Cell Angles
                    a =   12.250100          alpha =   89.911350
                    b =   11.650210          beta  =   99.821840
                    c =   12.268200          gamma =   90.512940
 
                       Current cell volume = 1725.139595       A**3
                                   density =    0.892199   AMU/A**3
                                           =    1.481531     g/cm^3
 
                           -------------------------------
                                     Cell Contents
                           -------------------------------
                         Total number of ions in cell =   48
                      Total number of species in cell =    1
                        Max number of any one species =   48
 
            xxxxxxxxxxxxxxxxxxxxxxxxxxxxxxxxxxxxxxxxxxxxxxxxxxxxxxxxxxxx
            x  Element    Atom        Fractional coordinates of atoms  x
            x            Number           u          v          w      x
            x----------------------------------------------------------x
            x  S            1         0.055859   0.180151   0.169017   x 
            x  S            2         0.946016   0.674044   0.830462   x 
            x  S            3         0.211766   0.180089   0.263822   x 
            x  S            4         0.790803   0.673976   0.734393   x 
            x  S            5         0.242533   0.019970   0.333099   x 
            x  S            6         0.757766   0.513922   0.665135   x 
            x  S            7         0.334018   0.925982   0.239753   x 
            x  S            8         0.665697   0.419510   0.759029   x 
            x  S            9         0.230140   0.821176   0.132515   x 
            x  S           10         0.768827   0.314882   0.865611   x 
            x  S           11         0.193600   0.900240   0.980623   x 
            x  S           12         0.805820   0.393089   0.018081   x 
            x  S           13         0.043023   0.980991   0.968307   x 
            x  S           14         0.956821   0.475387   0.031296   x 
            x  S           15         0.068910   0.152403   0.006015   x 
            x  S           16         0.931662   0.646453   0.993264   x 
            x  S           17         0.306616   0.436066   0.033027   x 
            x  S           18         0.691564   0.936804   0.966169   x 
            x  S           19         0.454728   0.351326   0.043009   x 
            x  S           20         0.544361   0.846679   0.955718   x 
            x  S           21         0.422366   0.180754   0.005770   x 
            x  S           22         0.576917   0.676281   0.991543   x 
            x  S           23         0.433459   0.152785   0.842348   x 
            x  S           24         0.568370   0.645633   0.155164   x 
            x  S           25         0.277043   0.153402   0.748270   x 
            x  S           26         0.726434   0.647334   0.245301   x 
            x  S           27         0.243903   0.313725   0.680326   x 
            x  S           28         0.758031   0.806480   0.317115   x 
            x  S           29         0.157684   0.407824   0.778875   x 
            x  S           30         0.842785   0.905607   0.219717   x 
            x  S           31         0.267243   0.512731   0.880260   x 
            x  S           32         0.731959   0.009452   0.120497   x 
            x  S           33         0.340050   0.821293   0.616062   x 
            x  S           34         0.667029   0.325156   0.393755   x 
            x  S           35         0.182754   0.778921   0.642200   x 
            x  S           36         0.818239   0.274239   0.359615   x 
            x  S           37         0.076513   0.767340   0.493062   x 
            x  S           38         0.928061   0.257696   0.505879   x 
            x  S           39         0.060610   0.598542   0.442535   x 
            x  S           40         0.934431   0.087866   0.554014   x 
            x  S           41         0.166863   0.567651   0.332763   x 
            x  S           42         0.830362   0.059208   0.666447   x 
            x  S           43         0.309949   0.496004   0.416993   x 
            x  S           44         0.681622   0.994368   0.584144   x 
            x  S           45         0.429872   0.620977   0.456296   x 
            x  S           46         0.569522   0.125791   0.552734   x 
            x  S           47         0.432005   0.674094   0.616769   x 
            x  S           48         0.565395   0.183088   0.393202   x 
            xxxxxxxxxxxxxxxxxxxxxxxxxxxxxxxxxxxxxxxxxxxxxxxxxxxxxxxxxxxx
 
 
                         No user defined ionic velocities
 
                           -------------------------------
                                   Details of Species
                           -------------------------------
 
                               Mass of species in AMU
                                    S   32.0660000
 
                          Electric Quadrupole Moment (Barn)
                                    S   -0.0678000 Isotope 33
 
                          Files used for pseudopotentials:
                                    S 3|1.8|5|6|7|30:31:32(qc=5)
 
                           -------------------------------
                              k-Points For BZ Sampling
                           -------------------------------
                       MP grid size for SCF calculation is  2  2  2
                            with an offset of   0.000  0.000  0.000
                       Number of kpoints used =             4
 
                           -------------------------------
                               Symmetry and Constraints
                           -------------------------------
 
                      Maximum deviation from symmetry =  0.00000         ANG
 
                      Number of symmetry operations   =           1
                      Number of ionic constraints     =           3
                      Point group of crystal =     1: C1, 1, 1
                      Space group of crystal =     1: P1, P 1
 
             Set iprint > 1 for details on symmetry rotations/translations
 
                         Centre of mass is constrained
             Set iprint > 1 for details of linear ionic constraints
 
                         Number of cell constraints= 0
                         Cell constraints are:  1 2 3 4 5 6
 
                         External pressure/stress (GPa)
                          0.00000   0.00000   0.00000
                                    0.00000   0.00000
                                              0.00000
  
+---------------- MEMORY AND SCRATCH DISK ESTIMATES PER PROCESS --------------+
|                                                     Memory          Disk    |
| Baseline code, static data and system overhead      168.0 MB         0.0 MB |
| BLAS internal memory storage                          0.0 MB         0.0 MB |
| Model and support data                             3797.7 MB         0.0 MB |
| Electronic energy minimisation requirements        1487.5 MB         0.0 MB |
| Force calculation requirements                      225.4 MB         0.0 MB |
| Stress calculation requirements                     249.2 MB         0.0 MB |
|                                               ----------------------------- |
| Approx. total storage required per process         5453.1 MB         0.0 MB |
|                                                                             |
| Requirements will fluctuate during execution and may exceed these estimates |
+-----------------------------------------------------------------------------+
Calculating total energy with cut-off of  800.000 eV.
------------------------------------------------------------------------ <-- SCF
SCF loop      Energy           Fermi           Energy gain       Timer   <-- SCF
                               energy          per atom          (sec)   <-- SCF
------------------------------------------------------------------------ <-- SCF
Initial  -5.47987240E+003  0.00000000E+000                        32.58  <-- SCF
      1  -1.34722453E+004  3.13800242E+000   1.66507769E+002     158.06  <-- SCF
      2  -1.45145570E+004  4.69799124E-002   2.17148264E+001     248.26  <-- SCF
      3  -1.45706883E+004  2.83330821E-001   1.16940293E+000     340.81  <-- SCF
      4  -1.45710904E+004  2.95055118E-001   8.37689693E-003     476.30  <-- SCF
      5  -1.45704371E+004  4.09555930E-001  -1.36105194E-002     605.71  <-- SCF
      6  -1.45704767E+004  4.25882131E-001   8.25168210E-004     753.67  <-- SCF
      7  -1.45704899E+004  4.40058690E-001   2.74969451E-004     879.96  <-- SCF
      8  -1.45704922E+004  4.44838195E-001   4.79978305E-005     991.10  <-- SCF
      9  -1.45704925E+004  4.46559083E-001   6.23236056E-006    1088.52  <-- SCF
     10  -1.45704923E+004  4.46320649E-001  -4.08380922E-006    1185.78  <-- SCF
     11  -1.45704923E+004  4.45425897E-001  -8.71425260E-007    1277.12  <-- SCF
------------------------------------------------------------------------ <-- SCF
 
Final energy, E             =  -14570.49229062     eV
Final free energy (E-TS)    =  -14570.49229062     eV
(energies not corrected for finite basis set)
 
NB est. 0K energy (E-0.5TS)      =  -14570.49229062     eV
 

Writing analysis data to 419593.castep_bin

Writing model to 419593.check

WARNING - doing cell minimisation without finite basis correction:
        => now searching for a stationary and not minimum energy
 
+---------------- MEMORY AND SCRATCH DISK ESTIMATES PER PROCESS --------------+
|                                                     Memory          Disk    |
| Model and support data                             3737.5 MB         0.0 MB |
| Electronic energy minimisation requirements        1487.5 MB         0.0 MB |
| Geometry minimisation requirements                 1747.7 MB         0.0 MB |
|                                               ----------------------------- |
| Approx. total storage required per process         6972.7 MB         0.0 MB |
|                                                                             |
| Requirements will fluctuate during execution and may exceed these estimates |
+-----------------------------------------------------------------------------+
 
 
 ******************************** Constrained Forces ********************************
 *                                                                                  *
 *                           Cartesian components (eV/A)                            *
 * -------------------------------------------------------------------------------- *
 *                         x                    y                    z              *
 *                                                                                  *
 * S               1     -0.18143              0.00333              0.05437         *
 * S               2      0.20717              0.03108             -0.05591         *
 * S               3      0.12781              0.14658              0.02347         *
 * S               4     -0.13543              0.15966             -0.00446         *
 * S               5     -0.10568             -0.06451              0.18269         *
 * S               6      0.11392             -0.07289             -0.18831         *
 * S               7      0.21729              0.01036             -0.02590         *
 * S               8     -0.22111             -0.00565              0.03646         *
 * S               9     -0.08044             -0.14489              0.05591         *
 * S              10      0.07022             -0.13205             -0.05588         *
 * S              11      0.13408             -0.00743             -0.13257         *
 * S              12     -0.15894             -0.03646              0.12552         *
 * S              13     -0.16610             -0.05518             -0.04951         *
 * S              14      0.17564             -0.03675              0.05323         *
 * S              15      0.05573              0.11495             -0.13366         *
 * S              16     -0.05122              0.12987              0.11996         *
 * S              17     -0.12277              0.06486              0.15654         *
 * S              18      0.10913             -0.03018             -0.16235         *
 * S              19      0.15460              0.03238              0.04554         *
 * S              20     -0.15334              0.06339             -0.02287         *
 * S              21     -0.02215             -0.13498              0.11466         *
 * S              22      0.03596             -0.09616             -0.16151         *
 * S              23      0.19122             -0.02423             -0.08714         *
 * S              24     -0.17662             -0.04554              0.06080         *
 * S              25     -0.14190             -0.15504              0.00926         *
 * S              26      0.10417             -0.13770              0.05108         *
 * S              27      0.09948              0.06731             -0.15923         *
 * S              28     -0.05635              0.05492              0.15165         *
 * S              29     -0.17406              0.00994             -0.01955         *
 * S              30      0.17714              0.02239              0.00104         *
 * S              31      0.03278              0.13264             -0.05454         *
 * S              32     -0.05880              0.18832              0.08597         *
 * S              33      0.03998              0.16906             -0.04022         *
 * S              34     -0.06655              0.14627              0.01010         *
 * S              35     -0.06185             -0.04968              0.17039         *
 * S              36      0.06742             -0.01192             -0.13787         *
 * S              37     -0.06953              0.14968             -0.09322         *
 * S              38      0.06943              0.09709              0.08399         *
 * S              39     -0.11409             -0.10864              0.05715         *
 * S              40      0.16362             -0.11500             -0.07193         *
 * S              41     -0.00349              0.04322             -0.14820         *
 * S              42     -0.02183              0.01571              0.14797         *
 * S              43      0.02663             -0.22681              0.00879         *
 * S              44     -0.01218             -0.16438              0.00902         *
 * S              45      0.11449              0.07575             -0.09908         *
 * S              46     -0.11041              0.05190              0.09227         *
 * S              47      0.07111             -0.07108              0.15075         *
 * S              48     -0.09273             -0.05351             -0.15466         *
 *                                                                                  *
 ************************************************************************************
 
 ***************** Stress Tensor *****************
 *                                               *
 *          Cartesian components (GPa)           *
 * --------------------------------------------- *
 *             x             y             z     *
 *                                               *
 *  x     -0.487510      0.003347     -0.068601  *
 *  y      0.003347     -0.528789     -0.003566  *
 *  z     -0.068601     -0.003566     -0.531246  *
 *                                               *
 *  Pressure:    0.5158                          *
 *                                               *
 *************************************************
 BFGS: finished iteration     0 with enthalpy= -1.45704923E+004 eV
  
 +-----------+-----------------+-----------------+------------+-----+ <-- BFGS
 | Parameter |      value      |    tolerance    |    units   | OK? | <-- BFGS
 +-----------+-----------------+-----------------+------------+-----+ <-- BFGS
 |  dE/ion   |   0.000000E+000 |   2.000000E-005 |         eV | No  | <-- BFGS
 |  |F|max   |   2.318479E-001 |   5.000000E-002 |       eV/A | No  | <-- BFGS
 |  |dR|max  |   0.000000E+000 |   1.000000E-003 |          A | No  | <-- BFGS
 |   Smax    |   5.312456E-001 |   1.000000E-001 |        GPa | No  | <-- BFGS
 +-----------+-----------------+-----------------+------------+-----+ <-- BFGS
  

================================================================================
 Starting BFGS iteration          1 ...
================================================================================
  
 +------------+-------------+-------------+-----------------+ <-- min BFGS
 |    Step    |   lambda    |   F.delta'  |    enthalpy     | <-- min BFGS
 +------------+-------------+-------------+-----------------+ <-- min BFGS
 |  previous  |    0.000000 |    0.591581 |   -14570.492291 | <-- min BFGS
 +------------+-------------+-------------+-----------------+ <-- min BFGS
  

--------------------------------------------------------------------------------
 BFGS: starting iteration         1 with trial guess (lambda=  1.000000)
--------------------------------------------------------------------------------
 
+---------------- MEMORY AND SCRATCH DISK ESTIMATES PER PROCESS --------------+
|                                                     Memory          Disk    |
| Model and support data                             3739.0 MB         0.0 MB |
| Electronic energy minimisation requirements        1488.8 MB         0.0 MB |
| Geometry minimisation requirements                 1749.4 MB         0.0 MB |
|                                               ----------------------------- |
| Approx. total storage required per process         6977.2 MB         0.0 MB |
|                                                                             |
| Requirements will fluctuate during execution and may exceed these estimates |
+-----------------------------------------------------------------------------+
 
 
                           -------------------------------
                                      Unit Cell
                           -------------------------------
        Real Lattice(A)              Reciprocal Lattice(1/A)
  12.2540814  -0.0000273   0.0005602        0.5127382   0.0045913   0.0887411
  -0.1043569  11.6538502   0.0000229        0.0000012   0.5391510  -0.0000123
  -2.0928995   0.0002800  12.0925699       -0.0000238  -0.0000012   0.5195865
 
                       Lattice parameters(A)       Cell Angles
                    a =   12.254081          alpha =   89.911088
                    b =   11.654317          beta  =   99.816473
                    c =   12.272346          gamma =   90.513181
 
                Current cell volume = 1726.920023 A**3
 
                           -------------------------------
                                     Cell Contents
                           -------------------------------
 
            xxxxxxxxxxxxxxxxxxxxxxxxxxxxxxxxxxxxxxxxxxxxxxxxxxxxxxxxxxxxxxxxx
            x  Element         Atom        Fractional coordinates of atoms  x
            x                 Number           u          v          w      x
            x---------------------------------------------------------------x
            x  S                 1         0.055816   0.180152   0.169031   x
            x  S                 2         0.946065   0.674052   0.830448   x
            x  S                 3         0.211799   0.180127   0.263828   x
            x  S                 4         0.790769   0.674018   0.734392   x
            x  S                 5         0.242514   0.019953   0.333145   x
            x  S                 6         0.757786   0.513903   0.665088   x
            x  S                 7         0.334071   0.925985   0.239746   x
            x  S                 8         0.665644   0.419509   0.759038   x
            x  S                 9         0.230122   0.821138   0.132529   x
            x  S                10         0.768842   0.314847   0.865597   x
            x  S                11         0.193628   0.900238   0.980590   x
            x  S                12         0.805786   0.393079   0.018113   x
            x  S                13         0.042979   0.980977   0.968295   x
            x  S                14         0.956867   0.475377   0.031309   x
            x  S                15         0.068918   0.152433   0.005981   x
            x  S                16         0.931655   0.646487   0.993294   x
            x  S                17         0.306592   0.436083   0.033066   x
            x  S                18         0.691584   0.936796   0.966128   x
            x  S                19         0.454769   0.351334   0.043020   x
            x  S                20         0.544322   0.846696   0.955712   x
            x  S                21         0.422365   0.180719   0.005799   x
            x  S                22         0.576919   0.676256   0.991502   x
            x  S                23         0.433503   0.152779   0.842326   x
            x  S                24         0.568329   0.645621   0.155179   x
            x  S                25         0.277008   0.153361   0.748272   x
            x  S                26         0.726462   0.647298   0.245314   x
            x  S                27         0.243921   0.313743   0.680286   x
            x  S                28         0.758024   0.806494   0.317153   x
            x  S                29         0.157640   0.407827   0.778870   x
            x  S                30         0.842829   0.905613   0.219717   x
            x  S                31         0.267249   0.512766   0.880246   x
            x  S                32         0.731948   0.009501   0.120519   x
            x  S                33         0.340059   0.821337   0.616052   x
            x  S                34         0.667013   0.325194   0.393758   x
            x  S                35         0.182746   0.778908   0.642243   x
            x  S                36         0.818250   0.274236   0.359580   x
            x  S                37         0.076492   0.767379   0.493038   x
            x  S                38         0.928082   0.257721   0.505900   x
            x  S                39         0.060584   0.598514   0.442549   x
            x  S                40         0.934468   0.087836   0.553996   x
            x  S                41         0.166856   0.567662   0.332726   x
            x  S                42         0.830363   0.059212   0.666484   x
            x  S                43         0.309955   0.495945   0.416995   x
            x  S                44         0.681619   0.994325   0.584146   x
            x  S                45         0.429896   0.620997   0.456271   x
            x  S                46         0.569499   0.125805   0.552757   x
            x  S                47         0.432029   0.674075   0.616807   x
            x  S                48         0.565365   0.183074   0.393163   x
            xxxxxxxxxxxxxxxxxxxxxxxxxxxxxxxxxxxxxxxxxxxxxxxxxxxxxxxxxxxxxxxxx
 
 
------------------------------------------------------------------------ <-- SCF
SCF loop      Energy           Fermi           Energy gain       Timer   <-- SCF
                               energy          per atom          (sec)   <-- SCF
------------------------------------------------------------------------ <-- SCF
Initial  -1.45704976E+004  0.00000000E+000                      2914.06  <-- SCF
      1  -1.45705068E+004  4.35306234E-001   1.93073335E-004    3014.16  <-- SCF
      2  -1.45705069E+004  4.35300163E-001   2.32821510E-006    3114.82  <-- SCF
      3  -1.45705036E+004  4.33754327E-001  -6.92832501E-005    3223.73  <-- SCF
      4  -1.45705025E+004  4.32506680E-001  -2.29262734E-005    3332.99  <-- SCF
      5  -1.45705025E+004  4.33333838E-001  -2.15147148E-007    3421.49  <-- SCF
      6  -1.45705025E+004  4.33072534E-001  -6.96677319E-007    3509.97  <-- SCF
------------------------------------------------------------------------ <-- SCF
 
Final energy, E             =  -14570.50247835     eV
Final free energy (E-TS)    =  -14570.50247835     eV
(energies not corrected for finite basis set)
 
NB est. 0K energy (E-0.5TS)      =  -14570.50247835     eV
 
 
 ******************************** Constrained Forces ********************************
 *                                                                                  *
 *                           Cartesian components (eV/A)                            *
 * -------------------------------------------------------------------------------- *
 *                         x                    y                    z              *
 *                                                                                  *
 * S               1     -0.17318              0.01154              0.05629         *
 * S               2      0.19901              0.04173             -0.05604         *
 * S               3      0.11683              0.14474              0.03853         *
 * S               4     -0.12443              0.15964             -0.01902         *
 * S               5     -0.09303             -0.05581              0.18939         *
 * S               6      0.10092             -0.06461             -0.19488         *
 * S               7      0.20681              0.00080             -0.01531         *
 * S               8     -0.21078             -0.01569              0.02656         *
 * S               9     -0.06829             -0.14107              0.05437         *
 * S              10      0.05552             -0.12849             -0.05393         *
 * S              11      0.12415             -0.01684             -0.13187         *
 * S              12     -0.15132             -0.04664              0.12422         *
 * S              13     -0.15633             -0.04930             -0.05948         *
 * S              14      0.16747             -0.02933              0.06310         *
 * S              15      0.04157              0.10684             -0.12947         *
 * S              16     -0.03504              0.12387              0.11561         *
 * S              17     -0.11422              0.07566              0.15748         *
 * S              18      0.09869             -0.02502             -0.16460         *
 * S              19      0.14711              0.02663              0.05757         *
 * S              20     -0.14326              0.05814             -0.03558         *
 * S              21     -0.00597             -0.12938              0.11083         *
 * S              22      0.02146             -0.08906             -0.15891         *
 * S              23      0.18276             -0.03407             -0.08867         *
 * S              24     -0.17003             -0.05488              0.06308         *
 * S              25     -0.13047             -0.15498             -0.00373         *
 * S              26      0.09212             -0.13811              0.06722         *
 * S              27      0.08813              0.06114             -0.16465         *
 * S              28     -0.04312              0.04820              0.15819         *
 * S              29     -0.16189              0.02096             -0.03250         *
 * S              30      0.16575              0.03367              0.01473         *
 * S              31      0.01986              0.13097             -0.05234         *
 * S              32     -0.04677              0.18710              0.08716         *
 * S              33      0.03601              0.16124             -0.03375         *
 * S              34     -0.06649              0.13864              0.00209         *
 * S              35     -0.05907             -0.03730              0.15757         *
 * S              36      0.06603              0.00064             -0.12624         *
 * S              37     -0.07309              0.14039             -0.08050         *
 * S              38      0.07395              0.08584              0.07100         *
 * S              39     -0.11220             -0.10019              0.04855         *
 * S              40      0.16429             -0.10743             -0.06570         *
 * S              41     -0.00634              0.02959             -0.13512         *
 * S              42     -0.02229              0.00173              0.13455         *
 * S              43      0.03075             -0.22068             -0.00200         *
 * S              44     -0.01396             -0.15796              0.02064         *
 * S              45      0.11480              0.06412             -0.08979         *
 * S              46     -0.11099              0.04038              0.08208         *
 * S              47      0.07552             -0.05788              0.13603         *
 * S              48     -0.09692             -0.03948             -0.14277         *
 *                                                                                  *
 ************************************************************************************
 
 ***************** Stress Tensor *****************
 *                                               *
 *          Cartesian components (GPa)           *
 * --------------------------------------------- *
 *             x             y             z     *
 *                                               *
 *  x     -0.416966      0.002813     -0.061096  *
 *  y      0.002813     -0.457154     -0.003464  *
 *  z     -0.061096     -0.003464     -0.455398  *
 *                                               *
 *  Pressure:    0.4432                          *
 *                                               *
 *************************************************
  
 +------------+-------------+-------------+-----------------+ <-- min BFGS
 |    Step    |   lambda    |   F.delta'  |    enthalpy     | <-- min BFGS
 +------------+-------------+-------------+-----------------+ <-- min BFGS
 |  previous  |    0.000000 |    0.591581 |   -14570.492291 | <-- min BFGS
 | trial step |    1.000000 |    0.536126 |   -14570.502478 | <-- min BFGS
 +------------+-------------+-------------+-----------------+ <-- min BFGS
  

--------------------------------------------------------------------------------
 BFGS: improving iteration         1 with line minimization (lambda= 10.667717)
--------------------------------------------------------------------------------
 
+---------------- MEMORY AND SCRATCH DISK ESTIMATES PER PROCESS --------------+
|                                                     Memory          Disk    |
| Model and support data                             3753.2 MB         0.0 MB |
| Electronic energy minimisation requirements        1502.2 MB         0.0 MB |
| Geometry minimisation requirements                 1765.1 MB         0.0 MB |
|                                               ----------------------------- |
| Approx. total storage required per process         7020.5 MB         0.0 MB |
|                                                                             |
| Requirements will fluctuate during execution and may exceed these estimates |
+-----------------------------------------------------------------------------+
 
 
                           -------------------------------
                                      Unit Cell
                           -------------------------------
        Real Lattice(A)              Reciprocal Lattice(1/A)
  12.2925721  -0.0002916   0.0059766        0.5110940   0.0045846   0.0882133
  -0.1049359  11.6935562   0.0002445        0.0000128   0.5373204  -0.0000245
  -2.0941303   0.0006038  12.1330347       -0.0002518  -0.0000131   0.5178142
 
                       Lattice parameters(A)       Cell Angles
                    a =   12.292574          alpha =   89.908563
                    b =   11.694027          beta  =   99.764767
                    c =   12.312429          gamma =   90.515507
 
                Current cell volume = 1744.195488 A**3
 
                           -------------------------------
                                     Cell Contents
                           -------------------------------
 
            xxxxxxxxxxxxxxxxxxxxxxxxxxxxxxxxxxxxxxxxxxxxxxxxxxxxxxxxxxxxxxxxx
            x  Element         Atom        Fractional coordinates of atoms  x
            x                 Number           u          v          w      x
            x---------------------------------------------------------------x
            x  S                 1         0.055402   0.180160   0.169163   x
            x  S                 2         0.946541   0.674131   0.830312   x
            x  S                 3         0.212120   0.180498   0.263885   x
            x  S                 4         0.790445   0.674422   0.734381   x
            x  S                 5         0.242335   0.019790   0.333591   x
            x  S                 6         0.757980   0.513719   0.664628   x
            x  S                 7         0.334583   0.926011   0.239683   x
            x  S                 8         0.665127   0.419494   0.759127   x
            x  S                 9         0.229949   0.820772   0.132665   x
            x  S                10         0.768985   0.314513   0.865461   x
            x  S                11         0.193895   0.900219   0.980266   x
            x  S                12         0.805455   0.392987   0.018419   x
            x  S                13         0.042558   0.980837   0.968174   x
            x  S                14         0.957311   0.475284   0.031439   x
            x  S                15         0.068999   0.152724   0.005655   x
            x  S                16         0.931584   0.646816   0.993587   x
            x  S                17         0.306364   0.436247   0.033448   x
            x  S                18         0.691778   0.936720   0.965732   x
            x  S                19         0.455160   0.351416   0.043132   x
            x  S                20         0.543945   0.846856   0.955656   x
            x  S                21         0.422357   0.180377   0.006078   x
            x  S                22         0.576936   0.676013   0.991108   x
            x  S                23         0.433926   0.152717   0.842114   x
            x  S                24         0.567928   0.645506   0.155328   x
            x  S                25         0.276667   0.152969   0.748295   x
            x  S                26         0.726731   0.646950   0.245438   x
            x  S                27         0.244096   0.313913   0.679898   x
            x  S                28         0.757952   0.806633   0.317523   x
            x  S                29         0.157213   0.407852   0.778822   x
            x  S                30         0.843256   0.905670   0.219720   x
            x  S                31         0.267308   0.513101   0.880113   x
            x  S                32         0.731847   0.009978   0.120728   x
            x  S                33         0.340142   0.821765   0.615954   x
            x  S                34         0.666860   0.325564   0.393782   x
            x  S                35         0.182667   0.778782   0.642658   x
            x  S                36         0.818354   0.274206   0.359244   x
            x  S                37         0.076289   0.767758   0.492811   x
            x  S                38         0.928286   0.257967   0.506105   x
            x  S                39         0.060331   0.598239   0.442689   x
            x  S                40         0.934830   0.087545   0.553820   x
            x  S                41         0.166787   0.567772   0.332364   x
            x  S                42         0.830372   0.059252   0.666845   x
            x  S                43         0.310018   0.495371   0.417017   x
            x  S                44         0.681590   0.993909   0.584168   x
            x  S                45         0.430132   0.621188   0.456029   x
            x  S                46         0.569273   0.125936   0.552982   x
            x  S                47         0.432261   0.673896   0.617175   x
            x  S                48         0.565076   0.182939   0.392786   x
            xxxxxxxxxxxxxxxxxxxxxxxxxxxxxxxxxxxxxxxxxxxxxxxxxxxxxxxxxxxxxxxxx
 
 
------------------------------------------------------------------------ <-- SCF
SCF loop      Energy           Fermi           Energy gain       Timer   <-- SCF
                               energy          per atom          (sec)   <-- SCF
------------------------------------------------------------------------ <-- SCF
Initial  -1.45700578E+004  0.00000000E+000                      5151.03  <-- SCF
      1  -1.45709425E+004  3.59818060E-001   1.84326764E-002    5246.20  <-- SCF
      2  -1.45709555E+004  3.59641455E-001   2.70964397E-004    5381.63  <-- SCF
      3  -1.45706303E+004  3.42034993E-001  -6.77593176E-003    5494.61  <-- SCF
      4  -1.45705257E+004  3.28566415E-001  -2.17983641E-003    5614.23  <-- SCF
      5  -1.45705236E+004  3.31821337E-001  -4.32083979E-005    5750.13  <-- SCF
      6  -1.45705235E+004  3.27607981E-001  -1.75131790E-006    5867.72  <-- SCF
      7  -1.45705230E+004  3.28686391E-001  -1.10633145E-005    5980.09  <-- SCF
      8  -1.45705229E+004  3.28479345E-001  -1.69989499E-006    6071.75  <-- SCF
      9  -1.45705229E+004  3.28909251E-001  -3.43242669E-007    6162.81  <-- SCF
------------------------------------------------------------------------ <-- SCF
 
Final energy, E             =  -14570.52288051     eV
Final free energy (E-TS)    =  -14570.52288051     eV
(energies not corrected for finite basis set)
 
NB est. 0K energy (E-0.5TS)      =  -14570.52288051     eV
 
 
 ******************************** Constrained Forces ********************************
 *                                                                                  *
 *                           Cartesian components (eV/A)                            *
 * -------------------------------------------------------------------------------- *
 *                         x                    y                    z              *
 *                                                                                  *
 * S               1      0.09379             -0.01000             -0.03128         *
 * S               2     -0.07686              0.01780              0.02409         *
 * S               3     -0.07055             -0.07824              0.00461         *
 * S               4      0.06920             -0.07675              0.01094         *
 * S               5      0.05359              0.04000             -0.05112         *
 * S               6     -0.04925              0.04203              0.05834         *
 * S               7     -0.08352             -0.01342             -0.01822         *
 * S               8      0.07878             -0.01898              0.01668         *
 * S               9      0.04502              0.10258             -0.01700         *
 * S              10     -0.05393              0.10137              0.01930         *
 * S              11     -0.07429             -0.02436              0.05994         *
 * S              12      0.06583             -0.03647             -0.05959         *
 * S              13      0.08218              0.05842             -0.00182         *
 * S              14     -0.08928              0.07029              0.00189         *
 * S              15     -0.04587             -0.07208              0.04740         *
 * S              16      0.05717             -0.06003             -0.05554         *
 * S              17      0.07831              0.05809             -0.04005         *
 * S              18     -0.07055             -0.01168              0.06352         *
 * S              19     -0.09673             -0.07016              0.00167         *
 * S              20      0.08124             -0.03580              0.01655         *
 * S              21      0.08247              0.05246             -0.06463         *
 * S              22     -0.07017              0.07253              0.03555         *
 * S              23     -0.08062             -0.00741              0.00524         *
 * S              24      0.09136             -0.01970             -0.04159         *
 * S              25      0.05025              0.06582              0.02600         *
 * S              26     -0.09483              0.06630              0.02940         *
 * S              27     -0.02913             -0.04618              0.06454         *
 * S              28      0.06724             -0.03687             -0.06232         *
 * S              29      0.09990              0.03258             -0.03060         *
 * S              30     -0.09855              0.04810              0.00605         *
 * S              31     -0.07983             -0.09320              0.03108         *
 * S              32      0.06798             -0.06198             -0.02899         *
 * S              33     -0.04566             -0.08267              0.01602         *
 * S              34      0.01064             -0.09399             -0.04874         *
 * S              35      0.03087              0.01491             -0.08434         *
 * S              36     -0.02154              0.04795              0.10304         *
 * S              37      0.02737             -0.06915              0.07066         *
 * S              38     -0.03352             -0.09927             -0.06460         *
 * S              39      0.05120              0.08520             -0.03175         *
 * S              40     -0.00606              0.06446              0.03308         *
 * S              41      0.01011             -0.03974              0.11510         *
 * S              42     -0.01163             -0.04343             -0.11128         *
 * S              43      0.01744              0.05845             -0.06546         *
 * S              44      0.00237              0.08811              0.07700         *
 * S              45     -0.07436             -0.05381              0.07226         *
 * S              46      0.05448             -0.06107             -0.08455         *
 * S              47     -0.01222              0.06888             -0.08829         *
 * S              48      0.00016              0.06010              0.07182         *
 *                                                                                  *
 ************************************************************************************
 
 ***************** Stress Tensor *****************
 *                                               *
 *          Cartesian components (GPa)           *
 * --------------------------------------------- *
 *             x             y             z     *
 *                                               *
 *  x      0.207019     -0.001175      0.012625  *
 *  y     -0.001175      0.199730     -0.002858  *
 *  z      0.012625     -0.002858      0.225189  *
 *                                               *
 *  Pressure:   -0.2106                          *
 *                                               *
 *************************************************
  
 +------------+-------------+-------------+-----------------+ <-- min BFGS
 |    Step    |   lambda    |   F.delta'  |    enthalpy     | <-- min BFGS
 +------------+-------------+-------------+-----------------+ <-- min BFGS
 |  previous  |    0.000000 |    0.591581 |   -14570.492291 | <-- min BFGS
 | trial step |    1.000000 |    0.536126 |   -14570.502478 | <-- min BFGS
 |  line step |   10.667717 |   -0.261999 |   -14570.522881 | <-- min BFGS
 +------------+-------------+-------------+-----------------+ <-- min BFGS
  
 BFGS: finished iteration     1 with enthalpy= -1.45705229E+004 eV
  
 +-----------+-----------------+-----------------+------------+-----+ <-- BFGS
 | Parameter |      value      |    tolerance    |    units   | OK? | <-- BFGS
 +-----------+-----------------+-----------------+------------+-----+ <-- BFGS
 |  dE/ion   |   6.372893E-004 |   2.000000E-005 |         eV | No  | <-- BFGS
 |  |F|max   |   1.265875E-001 |   5.000000E-002 |       eV/A | No  | <-- BFGS
 |  |dR|max  |   7.565476E-003 |   1.000000E-003 |          A | No  | <-- BFGS
 |   Smax    |   2.251886E-001 |   1.000000E-001 |        GPa | No  | <-- BFGS
 +-----------+-----------------+-----------------+------------+-----+ <-- BFGS
  

================================================================================
 Starting BFGS iteration          2 ...
================================================================================
  
 +------------+-------------+-------------+-----------------+ <-- min BFGS
 |    Step    |   lambda    |   F.delta'  |    enthalpy     | <-- min BFGS
 +------------+-------------+-------------+-----------------+ <-- min BFGS
 |  previous  |    0.000000 |    0.267478 |   -14570.522881 | <-- min BFGS
 +------------+-------------+-------------+-----------------+ <-- min BFGS
  

--------------------------------------------------------------------------------
 BFGS: starting iteration         2 with trial guess (lambda=  1.000000)
--------------------------------------------------------------------------------
 
                           -------------------------------
                                      Unit Cell
                           -------------------------------
        Real Lattice(A)              Reciprocal Lattice(1/A)
  12.2796462  -0.0002043   0.0042524        0.5116443   0.0045867   0.0883860
  -0.1047429  11.6803571   0.0001931        0.0000090   0.5379276  -0.0000215
  -2.0936235   0.0005199  12.1194323       -0.0001795  -0.0000102   0.5184079
 
                       Lattice parameters(A)       Cell Angles
                    a =   12.279647          alpha =   89.909186
                    b =   11.680827          beta  =   99.781233
                    c =   12.298939          gamma =   90.514735
 
                Current cell volume = 1738.401810 A**3
 
                           -------------------------------
                                     Cell Contents
                           -------------------------------
 
            xxxxxxxxxxxxxxxxxxxxxxxxxxxxxxxxxxxxxxxxxxxxxxxxxxxxxxxxxxxxxxxxx
            x  Element         Atom        Fractional coordinates of atoms  x
            x                 Number           u          v          w      x
            x---------------------------------------------------------------x
            x  S                 1         0.055544   0.180156   0.169117   x
            x  S                 2         0.946383   0.674110   0.830357   x
            x  S                 3         0.212010   0.180371   0.263868   x
            x  S                 4         0.790556   0.674284   0.734386   x
            x  S                 5         0.242397   0.019847   0.333446   x
            x  S                 6         0.757914   0.513782   0.664779   x
            x  S                 7         0.334412   0.926000   0.239699   x
            x  S                 8         0.665298   0.419495   0.759103   x
            x  S                 9         0.230009   0.820902   0.132621   x
            x  S                10         0.768932   0.314634   0.865506   x
            x  S                11         0.193802   0.900221   0.980375   x
            x  S                12         0.805565   0.393009   0.018315   x
            x  S                13         0.042701   0.980890   0.968210   x
            x  S                14         0.957160   0.475326   0.031400   x
            x  S                15         0.068968   0.152622   0.005763   x
            x  S                16         0.931614   0.646704   0.993488   x
            x  S                17         0.306446   0.436208   0.033325   x
            x  S                18         0.691709   0.936741   0.965864   x
            x  S                19         0.455024   0.351379   0.043098   x
            x  S                20         0.544074   0.846801   0.955676   x
            x  S                21         0.422372   0.180491   0.005982   x
            x  S                22         0.576920   0.676100   0.991235   x
            x  S                23         0.433783   0.152735   0.842179   x
            x  S                24         0.568065   0.645537   0.155275   x
            x  S                25         0.276780   0.153101   0.748293   x
            x  S                26         0.726633   0.647068   0.245406   x
            x  S                27         0.244039   0.313853   0.680027   x
            x  S                28         0.757984   0.806584   0.317399   x
            x  S                29         0.157360   0.407850   0.778832   x
            x  S                30         0.843109   0.905661   0.219720   x
            x  S                31         0.267277   0.512982   0.880159   x
            x  S                32         0.731889   0.009821   0.120659   x
            x  S                33         0.340109   0.821619   0.615987   x
            x  S                34         0.666907   0.325434   0.393766   x
            x  S                35         0.182694   0.778823   0.642517   x
            x  S                36         0.818322   0.274224   0.359365   x
            x  S                37         0.076358   0.767630   0.492893   x
            x  S                38         0.928216   0.257874   0.506031   x
            x  S                39         0.060416   0.598338   0.442641   x
            x  S                40         0.934719   0.087645   0.553880   x
            x  S                41         0.166813   0.567731   0.332495   x
            x  S                42         0.830364   0.059232   0.666715   x
            x  S                43         0.310000   0.495557   0.416999   x
            x  S                44         0.681602   0.994052   0.584175   x
            x  S                45         0.430049   0.621120   0.456116   x
            x  S                46         0.569348   0.125885   0.552899   x
            x  S                47         0.432186   0.673963   0.617047   x
            x  S                48         0.565167   0.182991   0.392914   x
            xxxxxxxxxxxxxxxxxxxxxxxxxxxxxxxxxxxxxxxxxxxxxxxxxxxxxxxxxxxxxxxxx
 
 
------------------------------------------------------------------------ <-- SCF
SCF loop      Energy           Fermi           Energy gain       Timer   <-- SCF
                               energy          per atom          (sec)   <-- SCF
------------------------------------------------------------------------ <-- SCF
Initial  -1.45704785E+004  0.00000000E+000                      7801.80  <-- SCF
      1  -1.45705799E+004  3.52869016E-001   2.11250526E-003    7897.78  <-- SCF
      2  -1.45705813E+004  3.52839982E-001   3.02671347E-005    8032.02  <-- SCF
      3  -1.45705440E+004  3.59504088E-001  -7.76395929E-004    8146.67  <-- SCF
      4  -1.45705322E+004  3.64576817E-001  -2.47512376E-004    8267.31  <-- SCF
      5  -1.45705319E+004  3.63749170E-001  -5.59335117E-006    8367.44  <-- SCF
      6  -1.45705318E+004  3.64803606E-001  -1.34543617E-006    8464.19  <-- SCF
------------------------------------------------------------------------ <-- SCF
 
Final energy, E             =  -14570.53183249     eV
Final free energy (E-TS)    =  -14570.53183249     eV
(energies not corrected for finite basis set)
 
NB est. 0K energy (E-0.5TS)      =  -14570.53183249     eV
 
 
 ******************************** Constrained Forces ********************************
 *                                                                                  *
 *                           Cartesian components (eV/A)                            *
 * -------------------------------------------------------------------------------- *
 *                         x                    y                    z              *
 *                                                                                  *
 * S               1      0.03528             -0.01735             -0.01486         *
 * S               2     -0.01943              0.00595              0.00764         *
 * S               3     -0.02206             -0.03514             -0.00603         *
 * S               4      0.01910             -0.03472              0.02014         *
 * S               5      0.01294              0.00864             -0.01197         *
 * S               6     -0.00659              0.00863              0.01696         *
 * S               7     -0.01865             -0.00104             -0.02420         *
 * S               8      0.01632             -0.00616              0.02425         *
 * S               9      0.00745              0.05303              0.00404         *
 * S              10     -0.01489              0.05580             -0.00168         *
 * S              11     -0.02664             -0.00859              0.02601         *
 * S              12      0.01728             -0.02091             -0.02608         *
 * S              13      0.02692              0.03040              0.00107         *
 * S              14     -0.03318              0.04111             -0.00109         *
 * S              15     -0.01017             -0.02662              0.00972         *
 * S              16      0.01687             -0.01849             -0.01903         *
 * S              17      0.03120              0.04456             -0.00583         *
 * S              18     -0.02504             -0.02376              0.02592         *
 * S              19     -0.04207             -0.04258             -0.00316         *
 * S              20      0.02911             -0.01253              0.02067         *
 * S              21      0.04234              0.01121             -0.02753         *
 * S              22     -0.03053              0.03129             -0.00129         *
 * S              23     -0.02324              0.00284             -0.01121         *
 * S              24      0.03596             -0.01078             -0.02228         *
 * S              25      0.00123              0.02613              0.03448         *
 * S              26     -0.04309              0.02809              0.01710         *
 * S              27      0.00502             -0.01446              0.02530         *
 * S              28      0.03183             -0.01078             -0.02456         *
 * S              29      0.03635              0.01816             -0.01972         *
 * S              30     -0.03675              0.03253             -0.00460         *
 * S              31     -0.04457             -0.04938              0.00852         *
 * S              32      0.02969             -0.01700             -0.00246         *
 * S              33     -0.02492             -0.02987             -0.00726         *
 * S              34     -0.00410             -0.04116             -0.02202         *
 * S              35      0.01232             -0.01301             -0.03013         *
 * S              36     -0.00524              0.02289              0.04981         *
 * S              37      0.01426             -0.02073              0.02536         *
 * S              38     -0.01920             -0.05033             -0.02098         *
 * S              39      0.01858              0.03986             -0.00394         *
 * S              40      0.02164              0.02357              0.00453         *
 * S              41      0.00969             -0.00876              0.05646         *
 * S              42     -0.01246             -0.01462             -0.05326         *
 * S              43      0.01451              0.00178             -0.03545         *
 * S              44      0.00277              0.03389              0.04588         *
 * S              45     -0.03904             -0.01642              0.03081         *
 * S              46      0.02574             -0.02657             -0.04153         *
 * S              47     -0.00266              0.02727             -0.03239         *
 * S              48     -0.00989              0.02412              0.01988         *
 *                                                                                  *
 ************************************************************************************
 
 ***************** Stress Tensor *****************
 *                                               *
 *          Cartesian components (GPa)           *
 * --------------------------------------------- *
 *             x             y             z     *
 *                                               *
 *  x     -0.008506      0.000252     -0.013028  *
 *  y      0.000252     -0.027192     -0.003417  *
 *  z     -0.013028     -0.003417     -0.010707  *
 *                                               *
 *  Pressure:    0.0155                          *
 *                                               *
 *************************************************
  
 +------------+-------------+-------------+-----------------+ <-- min BFGS
 |    Step    |   lambda    |   F.delta'  |    enthalpy     | <-- min BFGS
 +------------+-------------+-------------+-----------------+ <-- min BFGS
 |  previous  |    0.000000 |    0.267478 |   -14570.522881 | <-- min BFGS
 | trial step |    1.000000 |    0.039057 |   -14570.531832 | <-- min BFGS
 +------------+-------------+-------------+-----------------+ <-- min BFGS
  
 BFGS: finished iteration     2 with enthalpy= -1.45705318E+004 eV
  
 +-----------+-----------------+-----------------+------------+-----+ <-- BFGS
 | Parameter |      value      |    tolerance    |    units   | OK? | <-- BFGS
 +-----------+-----------------+-----------------+------------+-----+ <-- BFGS
 |  dE/ion   |   1.864997E-004 |   2.000000E-005 |         eV | No  | <-- BFGS
 |  |F|max   |   6.706321E-002 |   5.000000E-002 |       eV/A | No  | <-- BFGS
 |  |dR|max  |   2.270648E-003 |   1.000000E-003 |          A | No  | <-- BFGS
 |   Smax    |   2.719165E-002 |   1.000000E-001 |        GPa | Yes | <-- BFGS
 +-----------+-----------------+-----------------+------------+-----+ <-- BFGS
  
 BFGS: WARNING - Geometry optimization failed to converge after          2 steps

================================================================================
 BFGS: Final Configuration:
================================================================================
 
                           -------------------------------
                                      Unit Cell
                           -------------------------------
        Real Lattice(A)              Reciprocal Lattice(1/A)
  12.2796462  -0.0002043   0.0042524        0.5116443   0.0045867   0.0883860
  -0.1047429  11.6803571   0.0001931        0.0000090   0.5379276  -0.0000215
  -2.0936235   0.0005199  12.1194323       -0.0001795  -0.0000102   0.5184079
 
                       Lattice parameters(A)       Cell Angles
                    a =   12.279647          alpha =   89.909186
                    b =   11.680827          beta  =   99.781233
                    c =   12.298939          gamma =   90.514735
 
                Current cell volume = 1738.401810 A**3
 
                           -------------------------------
                                     Cell Contents
                           -------------------------------
 
            xxxxxxxxxxxxxxxxxxxxxxxxxxxxxxxxxxxxxxxxxxxxxxxxxxxxxxxxxxxxxxxxx
            x  Element         Atom        Fractional coordinates of atoms  x
            x                 Number           u          v          w      x
            x---------------------------------------------------------------x
            x  S                 1         0.055544   0.180156   0.169117   x
            x  S                 2         0.946383   0.674110   0.830357   x
            x  S                 3         0.212010   0.180371   0.263868   x
            x  S                 4         0.790556   0.674284   0.734386   x
            x  S                 5         0.242397   0.019847   0.333446   x
            x  S                 6         0.757914   0.513782   0.664779   x
            x  S                 7         0.334412   0.926000   0.239699   x
            x  S                 8         0.665298   0.419495   0.759103   x
            x  S                 9         0.230009   0.820902   0.132621   x
            x  S                10         0.768932   0.314634   0.865506   x
            x  S                11         0.193802   0.900221   0.980375   x
            x  S                12         0.805565   0.393009   0.018315   x
            x  S                13         0.042701   0.980890   0.968210   x
            x  S                14         0.957160   0.475326   0.031400   x
            x  S                15         0.068968   0.152622   0.005763   x
            x  S                16         0.931614   0.646704   0.993488   x
            x  S                17         0.306446   0.436208   0.033325   x
            x  S                18         0.691709   0.936741   0.965864   x
            x  S                19         0.455024   0.351379   0.043098   x
            x  S                20         0.544074   0.846801   0.955676   x
            x  S                21         0.422372   0.180491   0.005982   x
            x  S                22         0.576920   0.676100   0.991235   x
            x  S                23         0.433783   0.152735   0.842179   x
            x  S                24         0.568065   0.645537   0.155275   x
            x  S                25         0.276780   0.153101   0.748293   x
            x  S                26         0.726633   0.647068   0.245406   x
            x  S                27         0.244039   0.313853   0.680027   x
            x  S                28         0.757984   0.806584   0.317399   x
            x  S                29         0.157360   0.407850   0.778832   x
            x  S                30         0.843109   0.905661   0.219720   x
            x  S                31         0.267277   0.512982   0.880159   x
            x  S                32         0.731889   0.009821   0.120659   x
            x  S                33         0.340109   0.821619   0.615987   x
            x  S                34         0.666907   0.325434   0.393766   x
            x  S                35         0.182694   0.778823   0.642517   x
            x  S                36         0.818322   0.274224   0.359365   x
            x  S                37         0.076358   0.767630   0.492893   x
            x  S                38         0.928216   0.257874   0.506031   x
            x  S                39         0.060416   0.598338   0.442641   x
            x  S                40         0.934719   0.087645   0.553880   x
            x  S                41         0.166813   0.567731   0.332495   x
            x  S                42         0.830364   0.059232   0.666715   x
            x  S                43         0.310000   0.495557   0.416999   x
            x  S                44         0.681602   0.994052   0.584175   x
            x  S                45         0.430049   0.621120   0.456116   x
            x  S                46         0.569348   0.125885   0.552899   x
            x  S                47         0.432186   0.673963   0.617047   x
            x  S                48         0.565167   0.182991   0.392914   x
            xxxxxxxxxxxxxxxxxxxxxxxxxxxxxxxxxxxxxxxxxxxxxxxxxxxxxxxxxxxxxxxxx
 
 
 BFGS: Final Enthalpy     = -1.45705318E+004 eV
 BFGS: Final <frequency>  unchanged from initial value
 BFGS: Final bulk modulus =     133.60606 GPa
  
  **********************************************************
  *** There were at least     2 warnings during this run ***
  *** => please check the whole of this file carefully!  ***
  **********************************************************
 
 ******************* Unconstrained Forces *******************
 *                                                          *
 *               Cartesian components (eV/A)                *
 * -------------------------------------------------------- *
 *                         x            y            z      *
 *                                                          *
 * S               1      0.03528     -0.01735     -0.01486 *
 * S               2     -0.01943      0.00595      0.00764 *
 * S               3     -0.02206     -0.03514     -0.00603 *
 * S               4      0.01910     -0.03472      0.02014 *
 * S               5      0.01294      0.00864     -0.01197 *
 * S               6     -0.00659      0.00863      0.01696 *
 * S               7     -0.01865     -0.00104     -0.02420 *
 * S               8      0.01632     -0.00616      0.02425 *
 * S               9      0.00745      0.05303      0.00404 *
 * S              10     -0.01489      0.05580     -0.00168 *
 * S              11     -0.02664     -0.00859      0.02601 *
 * S              12      0.01728     -0.02091     -0.02608 *
 * S              13      0.02692      0.03040      0.00107 *
 * S              14     -0.03318      0.04111     -0.00109 *
 * S              15     -0.01017     -0.02662      0.00972 *
 * S              16      0.01687     -0.01849     -0.01903 *
 * S              17      0.03120      0.04456     -0.00583 *
 * S              18     -0.02504     -0.02376      0.02592 *
 * S              19     -0.04207     -0.04258     -0.00316 *
 * S              20      0.02911     -0.01253      0.02067 *
 * S              21      0.04234      0.01121     -0.02753 *
 * S              22     -0.03053      0.03129     -0.00129 *
 * S              23     -0.02324      0.00284     -0.01121 *
 * S              24      0.03596     -0.01078     -0.02228 *
 * S              25      0.00123      0.02613      0.03448 *
 * S              26     -0.04309      0.02809      0.01710 *
 * S              27      0.00502     -0.01446      0.02530 *
 * S              28      0.03183     -0.01078     -0.02456 *
 * S              29      0.03635      0.01816     -0.01972 *
 * S              30     -0.03675      0.03253     -0.00460 *
 * S              31     -0.04457     -0.04938      0.00852 *
 * S              32      0.02969     -0.01700     -0.00246 *
 * S              33     -0.02492     -0.02987     -0.00726 *
 * S              34     -0.00410     -0.04116     -0.02202 *
 * S              35      0.01232     -0.01301     -0.03013 *
 * S              36     -0.00524      0.02289      0.04981 *
 * S              37      0.01426     -0.02073      0.02536 *
 * S              38     -0.01920     -0.05033     -0.02098 *
 * S              39      0.01858      0.03986     -0.00394 *
 * S              40      0.02164      0.02357      0.00453 *
 * S              41      0.00969     -0.00876      0.05646 *
 * S              42     -0.01246     -0.01462     -0.05326 *
 * S              43      0.01451      0.00178     -0.03545 *
 * S              44      0.00277      0.03389      0.04588 *
 * S              45     -0.03904     -0.01642      0.03081 *
 * S              46      0.02574     -0.02657     -0.04153 *
 * S              47     -0.00266      0.02727     -0.03239 *
 * S              48     -0.00989      0.02412      0.01988 *
 *                                                          *
 ************************************************************
 
 ******************************** Constrained Forces ********************************
[...]
            x  S                10         0.768924   0.314652   0.865504   x
            x  S                11         0.193796   0.900213   0.980379   x
            x  S                12         0.805565   0.392993   0.018311   x
            x  S                13         0.042705   0.980902   0.968204   x
            x  S                14         0.957154   0.475345   0.031406   x
            x  S                15         0.068961   0.152614   0.005760   x
            x  S                16         0.931624   0.646702   0.993486   x
            x  S                17         0.306456   0.436236   0.033331   x
            x  S                18         0.691701   0.936731   0.965866   x
            x  S                19         0.455013   0.351359   0.043102   x
            x  S                20         0.544081   0.846797   0.955681   x
            x  S                21         0.422395   0.180489   0.005976   x
            x  S                22         0.576901   0.676110   0.991225   x
            x  S                23         0.433780   0.152731   0.842169   x
            x  S                24         0.568071   0.645525   0.155268   x
            x  S                25         0.276779   0.153105   0.748307   x
            x  S                26         0.726619   0.647074   0.245420   x
            x  S                27         0.244044   0.313847   0.680031   x
            x  S                28         0.757998   0.806580   0.317396   x
            x  S                29         0.157366   0.407861   0.778820   x
            x  S                30         0.843101   0.905680   0.219720   x
            x  S                31         0.267256   0.512967   0.880162   x
            x  S                32         0.731903   0.009825   0.120661   x
            x  S                33         0.340099   0.821613   0.615986   x
            x  S                34         0.666899   0.325422   0.393752   x
            x  S                35         0.182695   0.778819   0.642513   x
            x  S                36         0.818326   0.274238   0.359380   x
            x  S                37         0.076360   0.767628   0.492903   x
            x  S                38         0.928212   0.257854   0.506023   x
            x  S                39         0.060418   0.598352   0.442639   x
            x  S                40         0.934739   0.087651   0.553880   x
            x  S                41         0.166819   0.567725   0.332512   x
            x  S                42         0.830355   0.059222   0.666699   x
            x  S                43         0.310006   0.495547   0.416979   x
            x  S                44         0.681606   0.994059   0.584201   x
            x  S                45         0.430041   0.621114   0.456126   x
            x  S                46         0.569350   0.125872   0.552884   x
            x  S                47         0.432190   0.673975   0.617039   x
            x  S                48         0.565155   0.183002   0.392916   x
            xxxxxxxxxxxxxxxxxxxxxxxxxxxxxxxxxxxxxxxxxxxxxxxxxxxxxxxxxxxxxxxxx
 
 
 BFGS: Final Enthalpy     = -1.45705322E+004 eV
 BFGS: Final <frequency>  unchanged from initial value
 BFGS: Final bulk modulus unchanged from initial value
  
  **********************************************************
  *** There were at least     1 warnings during this run ***
  *** => please check the whole of this file carefully!  ***
  **********************************************************
 
 ******************* Unconstrained Forces *******************
 *                                                          *
 *               Cartesian components (eV/A)                *
 * -------------------------------------------------------- *
 *                         x            y            z      *
 *                                                          *
 * S               1      0.01116     -0.00566     -0.00797 *
 * S               2      0.00329      0.01457      0.00223 *
 * S               3     -0.00979     -0.01014      0.00393 *
 * S               4      0.00748     -0.00871      0.00835 *
 * S               5      0.00697      0.00536      0.01000 *
 * S               6     -0.00246      0.00563     -0.00633 *
 * S               7      0.00384     -0.00309     -0.01663 *
 * S               8     -0.00688     -0.00750      0.01680 *
 * S               9      0.00425      0.02241      0.00213 *
 * S              10     -0.00995      0.02443     -0.00018 *
 * S              11     -0.01045     -0.01429      0.00443 *
 * S              12      0.00246     -0.02534     -0.00412 *
 * S              13      0.00665      0.01727     -0.01002 *
 * S              14     -0.01147      0.02697      0.01085 *
 * S              15     -0.01109     -0.00898     -0.00395 *
 * S              16      0.01737     -0.00088     -0.00364 *
 * S              17      0.01502      0.04413      0.01240 *
 * S              18     -0.01075     -0.01201      0.00337 *
 * S              19     -0.01891     -0.02897      0.00783 *
 * S              20      0.00712     -0.00192      0.00764 *
 * S              21      0.03867     -0.00461     -0.01165 *
 * S              22     -0.02801      0.01387     -0.01439 *
 * S              23     -0.00114     -0.00702     -0.01554 *
 * S              24      0.01089     -0.01876     -0.01332 *
 * S              25     -0.00713      0.00205      0.02094 *
 * S              26     -0.02726      0.00481      0.02235 *
 * S              27      0.00874     -0.01097      0.00160 *
 * S              28      0.02307     -0.00643     -0.00116 *
 * S              29      0.01198      0.01718     -0.02003 *
 * S              30     -0.01108      0.02985     -0.00018 *
 * S              31     -0.03388     -0.02010      0.00720 *
 * S              32      0.02067      0.00821     -0.00287 *
 * S              33     -0.01633     -0.00624     -0.00026 *
 * S              34     -0.00837     -0.01683     -0.02303 *
 * S              35      0.00264     -0.00499     -0.00266 *
 * S              36      0.00279      0.02369      0.02015 *
 * S              37     -0.00127     -0.00201      0.01532 *
 * S              38     -0.00183     -0.02865     -0.01127 *
 * S              39      0.00045      0.02102     -0.00457 *
 * S              40      0.03272      0.00609      0.00366 *
 * S              41      0.00460     -0.01084      0.02583 *
 * S              42     -0.00607     -0.01585     -0.02317 *
 * S              43      0.01564     -0.01979     -0.03303 *
 * S              44     -0.00200      0.00782      0.04166 *
 * S              45     -0.01424     -0.01258      0.01450 *
 * S              46      0.00374     -0.01988     -0.02309 *
 * S              47      0.00946      0.02047     -0.00985 *
 * S              48     -0.02130      0.01725     -0.00025 *
 *                                                          *
 ************************************************************
 
 ******************************** Constrained Forces ********************************
 *                                                                                  *
 *                           Cartesian components (eV/A)                            *
 * -------------------------------------------------------------------------------- *
 *                         x                    y                    z              *
 *                                                                                  *
 * S               1      0.01116             -0.00566             -0.00797         *
 * S               2      0.00329              0.01457              0.00223         *
 * S               3     -0.00979             -0.01014              0.00393         *
 * S               4      0.00748             -0.00871              0.00835         *
 * S               5      0.00697              0.00536              0.01000         *
 * S               6     -0.00246              0.00563             -0.00633         *
 * S               7      0.00384             -0.00309             -0.01663         *
 * S               8     -0.00688             -0.00750              0.01680         *
 * S               9      0.00425              0.02241              0.00213         *
 * S              10     -0.00995              0.02443             -0.00018         *
 * S              11     -0.01045             -0.01429              0.00443         *
 * S              12      0.00246             -0.02534             -0.00412         *
 * S              13      0.00665              0.01727             -0.01002         *
 * S              14     -0.01147              0.02697              0.01085         *
 * S              15     -0.01109             -0.00898             -0.00395         *
 * S              16      0.01737             -0.00088             -0.00364         *
 * S              17      0.01502              0.04413              0.01240         *
 * S              18     -0.01075             -0.01201              0.00337         *
 * S              19     -0.01891             -0.02897              0.00783         *
 * S              20      0.00712             -0.00192              0.00764         *
 * S              21      0.03867             -0.00461             -0.01165         *
 * S              22     -0.02801              0.01387             -0.01439         *
 * S              23     -0.00114             -0.00702             -0.01554         *
 * S              24      0.01089             -0.01876             -0.01332         *
 * S              25     -0.00713              0.00205              0.02094         *
 * S              26     -0.02726              0.00481              0.02235         *
 * S              27      0.00874             -0.01097              0.00160         *
 * S              28      0.02307             -0.00643             -0.00116         *
 * S              29      0.01198              0.01718             -0.02003         *
 * S              30     -0.01108              0.02985             -0.00018         *
 * S              31     -0.03388             -0.02010              0.00720         *
 * S              32      0.02067              0.00821             -0.00287         *
 * S              33     -0.01633             -0.00624             -0.00026         *
 * S              34     -0.00837             -0.01683             -0.02303         *
 * S              35      0.00264             -0.00499             -0.00266         *
 * S              36      0.00279              0.02369              0.02015         *
 * S              37     -0.00127             -0.00201              0.01532         *
 * S              38     -0.00183             -0.02865             -0.01127         *
 * S              39      0.00045              0.02102             -0.00457         *
 * S              40      0.03272              0.00609              0.00366         *
 * S              41      0.00460             -0.01084              0.02583         *
 * S              42     -0.00607             -0.01585             -0.02317         *
 * S              43      0.01564             -0.01979             -0.03303         *
 * S              44     -0.00200              0.00782              0.04166         *
 * S              45     -0.01424             -0.01258              0.01450         *
 * S              46      0.00374             -0.01988             -0.02309         *
 * S              47      0.00946              0.02047             -0.00985         *
 * S              48     -0.02130              0.01725             -0.00025         *
 *                                                                                  *
 ************************************************************************************
 
 ***************** Stress Tensor *****************
 *                                               *
 *          Cartesian components (GPa)           *
 * --------------------------------------------- *
 *             x             y             z     *
 *                                               *
 *  x     -0.001815      0.000010     -0.010677  *
 *  y      0.000010     -0.019517     -0.002578  *
 *  z     -0.010677     -0.002578     -0.001935  *
 *                                               *
 *  Pressure:    0.0078                          *
 *                                               *
 *************************************************
 
 Pseudo atomic calculation performed for S 3s2 3p4
 
 Converged in 19 iterations to a total energy of -299.4518 eV
 
Charge spilling parameter for spin component 1 = 1.53%
 
     Atomic Populations (Mulliken)
     -----------------------------
Species          Ion     s      p      d      f     Total  Charge (e)
=====================================================================
  S               1     1.89   4.11   0.00   0.00   6.00    -0.00
  S               2     1.89   4.11   0.00   0.00   6.00    -0.00
  S               3     1.89   4.11   0.00   0.00   6.01    -0.01
  S               4     1.89   4.11   0.00   0.00   6.00    -0.00
  S               5     1.89   4.10   0.00   0.00   6.00     0.00
  S               6     1.89   4.11   0.00   0.00   6.00     0.00
  S               7     1.89   4.10   0.00   0.00   6.00     0.00
  S               8     1.89   4.10   0.00   0.00   6.00     0.00
  S               9     1.90   4.10   0.00   0.00   6.00     0.00
  S              10     1.90   4.10   0.00   0.00   6.00     0.00
  S              11     1.89   4.11   0.00   0.00   6.00    -0.00
  S              12     1.89   4.11   0.00   0.00   6.01    -0.01
  S              13     1.89   4.11   0.00   0.00   6.00    -0.00
  S              14     1.89   4.11   0.00   0.00   6.00    -0.00
  S              15     1.90   4.10   0.00   0.00   5.99     0.01
  S              16     1.90   4.10   0.00   0.00   5.99     0.01
  S              17     1.89   4.11   0.00   0.00   6.01    -0.01
  S              18     1.89   4.11   0.00   0.00   6.01    -0.01
  S              19     1.89   4.11   0.00   0.00   6.00    -0.00
  S              20     1.89   4.11   0.00   0.00   6.00    -0.00
  S              21     1.90   4.10   0.00   0.00   5.99     0.01
  S              22     1.90   4.10   0.00   0.00   5.99     0.01
  S              23     1.89   4.11   0.00   0.00   6.01    -0.01
  S              24     1.89   4.11   0.00   0.00   6.00    -0.00
  S              25     1.89   4.11   0.00   0.00   6.01    -0.01
  S              26     1.89   4.11   0.00   0.00   6.00    -0.00
  S              27     1.89   4.11   0.00   0.00   6.00    -0.00
  S              28     1.89   4.10   0.00   0.00   6.00     0.00
  S              29     1.90   4.10   0.00   0.00   6.00     0.00
  S              30     1.90   4.10   0.00   0.00   6.00     0.00
  S              31     1.89   4.10   0.00   0.00   6.00     0.00
  S              32     1.89   4.10   0.00   0.00   6.00     0.00
  S              33     1.90   4.10   0.00   0.00   6.00     0.00
  S              34     1.90   4.10   0.00   0.00   6.00     0.00
  S              35     1.89   4.11   0.00   0.00   6.00    -0.00
  S              36     1.89   4.11   0.00   0.00   6.00    -0.00
  S              37     1.89   4.10   0.00   0.00   6.00     0.00
  S              38     1.90   4.10   0.00   0.00   6.00     0.00
  S              39     1.89   4.11   0.00   0.00   6.00     0.00
  S              40     1.89   4.11   0.00   0.00   6.00     0.00
  S              41     1.90   4.10   0.00   0.00   6.00     0.00
  S              42     1.89   4.10   0.00   0.00   6.00     0.00
  S              43     1.89   4.10   0.00   0.00   6.00     0.00
  S              44     1.89   4.11   0.00   0.00   6.00    -0.00
  S              45     1.89   4.10   0.00   0.00   6.00     0.00
  S              46     1.89   4.10   0.00   0.00   6.00     0.00
  S              47     1.89   4.10   0.00   0.00   6.00     0.00
  S              48     1.89   4.10   0.00   0.00   6.00     0.00
=====================================================================
 
                 Bond                   Population      Length (A)
======================================================================
              S 40 -- S 42                   0.27        2.06728
              S 6  -- S 8                    0.27        2.06751
              S 44 -- S 46                   0.27        2.06763
              S 18 -- S 32                   0.27        2.06772
              S 28 -- S 30                   0.27        2.06775
              S 5  -- S 7                    0.27        2.06813
              S 17 -- S 31                   0.27        2.06835
              S 43 -- S 45                   0.27        2.06836
              S 19 -- S 21                   0.27        2.06860
              S 27 -- S 29                   0.27        2.06874
              S 26 -- S 28                   0.27        2.06883
              S 20 -- S 22                   0.27        2.06895
              S 9  -- S 11                   0.27        2.06898
              S 39 -- S 41                   0.27        2.06899
              S 46 -- S 48                   0.27        2.06900
              S 14 -- S 16                   0.27        2.06904
              S 2  -- S 16                   0.27        2.06906
              S 13 -- S 15                   0.27        2.06909
              S 22 -- S 24                   0.27        2.06911
              S 34 -- S 36                   0.27        2.06921
              S 21 -- S 23                   0.27        2.06930
              S 1  -- S 15                   0.27        2.06937
              S 10 -- S 12                   0.27        2.06945
              S 12 -- S 14                   0.27        2.06949
              S 17 -- S 19                   0.27        2.06950
              S 33 -- S 47                   0.27        2.06957
              S 4  -- S 6                    0.26        2.06960
              S 45 -- S 47                   0.27        2.06989
              S 41 -- S 43                   0.27        2.07000
              S 29 -- S 31                   0.27        2.07014
              S 3  -- S 5                    0.27        2.07025
              S 25 -- S 27                   0.26        2.07028
              S 37 -- S 39                   0.27        2.07028
              S 24 -- S 26                   0.26        2.07032
              S 36 -- S 38                   0.27        2.07049
              S 34 -- S 48                   0.27        2.07050
              S 2  -- S 4                    0.26        2.07055
              S 7  -- S 9                    0.27        2.07059
              S 8  -- S 10                   0.27        2.07082
              S 1  -- S 3                    0.26        2.07086
              S 33 -- S 35                   0.27        2.07090
              S 30 -- S 32                   0.27        2.07092
              S 38 -- S 40                   0.27        2.07092
              S 35 -- S 37                   0.27        2.07105
              S 11 -- S 13                   0.27        2.07115
              S 42 -- S 44                   0.27        2.07198
              S 23 -- S 25                   0.26        2.07208
              S 18 -- S 20                   0.26        2.07226
======================================================================
 

Writing analysis data to 419593.castep_bin

Writing model to 419593.check
 
 A BibTeX formatted list of references used in this run has been written to 
 419593.bib
 
Initialisation time =     10.26 s
Calculation time    =   5003.20 s
Finalisation time   =     11.98 s
Total time          =   5025.44 s
Peak Memory Use     = 7388444 kB
  
Overall parallel efficiency rating: Excellent (99%)                             
  
Data was distributed by:-
k-point (4-way); efficiency rating: Ideal (100%)                                
