 +-------------------------------------------------+
 |                                                 |
 |      CCC   AA    SSS  TTTTT  EEEEE  PPPP        |
 |     C     A  A  S       T    E      P   P       |
 |     C     AAAA   SS     T    EEE    PPPP        |
 |     C     A  A     S    T    E      P           |
 |      CCC  A  A  SSS     T    EEEEE  P           |
 |                                                 |
 +-------------------------------------------------+
 |                                                 |
 | Welcome to Academic Release CASTEP version 17.21|          
 | Ab Initio Total Energy Program                  |
 |                                                 |
 | Authors:                                        |
 | M. Segall, M. Probert, C. Pickard, P. Hasnip,   |
 | S. Clark, K. Refson, J. R. Yates, M. Payne      |
 |                                                 |
 | Contributors:                                   |
 | P. Lindan, P. Haynes, J. White, V. Milman,      |
 | N. Govind, M. Gibson, P. Tulip, V. Cocula,      |
 | B. Montanari, D. Quigley, M. Glover,            |
 | L. Bernasconi, A. Perlov, M. Plummer,           |
 | E. McNellis, J. Meyer, J. Gale, D. Jochym       |
 | J. Aarons, B. Walker, R. Gillen, D. Jones       |
 | T. Green, I. J. Bush, C. J. Armstrong,          |
 | E. J. Higgins, E. L. Brown, M. S. McFly,        |
 | J. Wilkins, B-C. Shih, P. J. P. Byrne           |
 |                                                 |
 | Copyright (c) 2000 - 2017                       |
 |                                                 |
 |     Distributed under the terms of an           |
 |     Agreement between the United Kingdom        |
 |     Car-Parrinello (UKCP) Consortium,           |
 |     Daresbury Laboratory and Accelrys, Inc.     |
 |                                                 |
 | Please cite                                     |
 |                                                 |
 |     "First principles methods using CASTEP"     |
 |                                                 |
 |         Zeitschrift fuer Kristallographie       |
 |           220(5-6) pp. 567-570 (2005)           |
 |                                                 |
 | S. J. Clark, M. D. Segall, C. J. Pickard,       |
 | P. J. Hasnip, M. J. Probert, K. Refson,         |
 | M. C. Payne                                     |
 |                                                 |
 |       in all publications arising from          |
 |              your use of CASTEP                 |
 |                                                 |
 +-------------------------------------------------+
 
 
 Compiled for linux_x86_64_ifort17 on Fri, 08 Sep 2017 17:58:23 +0100
 from code version 
 056e886bd5a1+ Castep172_branch Mon, 15 May 2017 14:45:35 +0100
 Compiler: Intel Fortran 17.0.2.174; Optimisation: fast
 MATHLIBS: Intel MKL(2017.0.2) (LAPACK version 3.7.0)
 FFT Lib : mkl
 Fundamental constants values: CODATA 2010
 
 Run started: Thu, 04 Jul 2019 13:09:28 +0100
 
 Atomic calculation performed for O: 1s2 2s2 2p4
 
 Converged in 61 iterations to an ae energy of -2040.902 eV
 
   ============================================================                
   | Pseudopotential Report - Date of generation  4-07-2019   |                
   ------------------------------------------------------------                
   | Element: O Ionic charge:  6.00 Level of theory: PBE      |                
   | Atomic Solver: Koelling-Harmon                           |                
   |                                                          |                
   |               Reference Electronic Structure             |                
   |         Orbital         Occupation         Energy        |                
   |            2s              2.000           -0.881        |                
   |            2p              4.000           -0.332        |                
   |                                                          |                
   |                 Pseudopotential Definition               |                
   |        Beta     l      e      Rc     scheme   norm       |                
   |          1      0   -0.881   1.697     qc      0         |                
   |          2      0    0.250   1.697     qc      0         |                
   |          3      1   -0.332   1.697     qc      0         |                
   |          4      1    0.250   1.697     qc      0         |                
   |         loc     2    0.000   1.697     pn      0         |                
   |                                                          |                
   | Augmentation charge Rinner = 1.186                       |                
   | Partial core correction Rc = 1.186                       |                
   ------------------------------------------------------------                
   | "2|1.7|7|7|9|20:21(qc=5)"                                |                
   ------------------------------------------------------------                
   |      Author: Chris J. Pickard, Cambridge University      |                
   ============================================================                
 
 Atomic calculation performed for Na: 1s2 2s2 2p6 3s1
 
 Converged in 65 iterations to an ae energy of -4418.769 eV
 
   ============================================================                
   | Pseudopotential Report - Date of generation  4-07-2019   |                
   ------------------------------------------------------------                
   | Element: Na Ionic charge:  9.00 Level of theory: PBE     |                
   | Atomic Solver: Koelling-Harmon                           |                
   |                                                          |                
   |               Reference Electronic Structure             |                
   |         Orbital         Occupation         Energy        |                
   |            2s              2.000           -2.086        |                
   |            2p              6.000           -1.054        |                
   |            3s              1.000           -0.101        |                
   |                                                          |                
   |                 Pseudopotential Definition               |                
   |        Beta     l      e      Rc     scheme   norm       |                
   |          1      0   -2.086   1.796     qc      0         |                
   |          2      0   -0.101   1.796     qc      0         |                
   |          3      0    0.250   1.796     qc      0         |                
   |          4      1   -1.054   1.796     qc      0         |                
   |          5      1    0.250   1.796     qc      0         |                
   |         loc     2    0.000   1.796     pn      0         |                
   |                                                          |                
   | Augmentation charge Rinner = 1.265                       |                
   | Partial core correction Rc = 1.265                       |                
   ------------------------------------------------------------                
   | "2|1.8|8|9|10|20U:30:21(qc=5)"                           |                
   ------------------------------------------------------------                
   |      Author: Chris J. Pickard, Cambridge University      |                
   ============================================================                
 
 Atomic calculation performed for S: 1s2 2s2 2p6 3s2 3p4
 
 Converged in 57 iterations to an ae energy of -10858.586 eV
 
   ============================================================                
   | Pseudopotential Report - Date of generation  4-07-2019   |                
   ------------------------------------------------------------                
   | Element: S Ionic charge:  6.00 Level of theory: PBE      |                
   | Atomic Solver: Koelling-Harmon                           |                
   |                                                          |                
   |               Reference Electronic Structure             |                
   |         Orbital         Occupation         Energy        |                
   |            3s              2.000           -0.634        |                
   |            3p              4.000           -0.258        |                
   |                                                          |                
   |                 Pseudopotential Definition               |                
   |        Beta     l      e      Rc     scheme   norm       |                
   |          1      0   -0.634   1.796     qc      0         |                
   |          2      0    0.250   1.796     qc      0         |                
   |          3      1   -0.258   1.796     qc      0         |                
   |          4      1    0.250   1.796     qc      0         |                
   |          5      2    0.000   1.796     qc      0         |                
   |          6      2    0.250   1.796     qc      0         |                
   |         loc     3    0.000   1.796     pn      0         |                
   |                                                          |                
   | Augmentation charge Rinner = 1.255                       |                
   | Partial core correction Rc = 1.255                       |                
   ------------------------------------------------------------                
   | "3|1.8|5|6|7|30:31:32(qc=5)"                             |                
   ------------------------------------------------------------                
   |      Author: Chris J. Pickard, Cambridge University      |                
   ============================================================                
 
 Atomic calculation performed for V: 1s2 2s2 2p6 3s2 3p6 3d3 4s2
 
 Converged in 79 iterations to an ae energy of -25823.732 eV
 
   ============================================================                
   | Pseudopotential Report - Date of generation  4-07-2019   |                
   ------------------------------------------------------------                
   | Element: V Ionic charge: 13.00 Level of theory: PBE      |                
   | Atomic Solver: Koelling-Harmon                           |                
   |                                                          |                
   |               Reference Electronic Structure             |                
   |         Orbital         Occupation         Energy        |                
   |            3s              2.000           -2.581        |                
   |            3p              6.000           -1.618        |                
   |            3d              3.000           -0.190        |                
   |            4s              2.000           -0.173        |                
   |                                                          |                
   |                 Pseudopotential Definition               |                
   |        Beta     l      e      Rc     scheme   norm       |                
   |          1      0   -2.581   1.993     qc      0         |                
   |          2      0   -0.173   1.993     qc      0         |                
   |          3      0    0.250   1.993     qc      0         |                
   |          4      1   -1.618   1.993     qc      0         |                
   |          5      1    0.250   1.993     qc      0         |                
   |          6      2   -0.190   1.993     qc      0         |                
   |          7      2    0.250   1.993     qc      0         |                
   |         loc     3    0.000   1.993     pn      0         |                
   |                                                          |                
   | Augmentation charge Rinner = 0.998                       |                
   | Partial core correction Rc = 0.998                       |                
   ------------------------------------------------------------                
   | "3|2.0|2.0|1.0|7|7|9|30U:40:31:32(qc=5)"                 |                
   ------------------------------------------------------------                
   |      Author: Chris J. Pickard, Cambridge University      |                
   ============================================================                
 
 Pseudo atomic calculation performed for O 2s2 2p4
 
 Converged in 12 iterations to a total energy of -431.3437 eV
 
 
 Pseudo atomic calculation performed for Na 2s2 2p6 3s1
 
 Converged in 19 iterations to a total energy of -1293.0763 eV
 
 
 Pseudo atomic calculation performed for S 3s2 3p4
 
 Converged in 19 iterations to a total energy of -299.4518 eV
 
 
 Pseudo atomic calculation performed for V 3s2 3p6 3d3 4s2
 
 Converged in 33 iterations to a total energy of -1945.7424 eV
 
 Calculation parallelised over 4 processes.
 Data is distributed by k-point(4-way)

 ************************************ Title ************************************
 

 ***************************** General Parameters ******************************
  
 output verbosity                               : normal  (1)
 write checkpoint data to                       : 71760.check
 type of calculation                            : geometry optimization
 stress calculation                             : on
 density difference calculation                 : on
 electron localisation func (ELF) calculation   : off
 Hirshfeld analysis                             : off
 unlimited duration calculation
 timing information                             : on
 memory usage estimate                          : on
 write final potential to formatted file        : off
 write final density to formatted file          : on
 write BibTeX reference list                    : on
 write OTFG pseudopotential files               : on
 write electrostatic potential file             : on
 write bands file                               : on
 checkpoint writing                             : both castep_bin and check files
  
 output         length unit                     : A
 output           mass unit                     : amu
 output           time unit                     : ps
 output         charge unit                     : e
 output           spin unit                     : hbar/2
 output         energy unit                     : eV
 output          force unit                     : eV/A
 output       velocity unit                     : A/ps
 output       pressure unit                     : GPa
 output     inv_length unit                     : 1/A
 output      frequency unit                     : cm-1
 output force constant unit                     : eV/A**2
 output         volume unit                     : A**3
 output   IR intensity unit                     : (D/A)**2/amu
 output         dipole unit                     : D
 output         efield unit                     : eV/A/e
 output        entropy unit                     : J/mol/K
  
 wavefunctions paging                           : none
 random number generator seed                   : randomised (130928075)
 data distribution                              : optimal for this architecture
 optimization strategy                          : maximize speed(+++)

 *********************** Exchange-Correlation Parameters ***********************
  
 using functional                               : Perdew Burke Ernzerhof
 relativistic treatment                         : Koelling-Harmon
 DFT+D: Semi-empirical dispersion correction    : off

 ************************* Pseudopotential Parameters **************************
  
 pseudopotential representation                 : reciprocal space
 <beta|phi> representation                      : reciprocal space
 spin-orbit coupling                            : off

 **************************** Basis Set Parameters *****************************
  
 plane wave basis set cut-off                   :   800.0000   eV
 size of standard grid                          :     2.0000
 size of   fine   gmax                          :    28.9810   1/A
 finite basis set correction                    : none

 **************************** Electronic Parameters ****************************
  
 number of  electrons                           :  164.0    
 net charge of system                           :  0.000    
 treating system as non-spin-polarized
 number of bands                                :         98

 ********************* Electronic Minimization Parameters **********************
  
 Method: Treating system as metallic with density mixing treatment of electrons,
         and number of  SD  steps               :          1
         and number of  CG  steps               :          4
  
 total energy / atom convergence tol.           : 0.1000E-04   eV
 eigen-energy convergence tolerance             : 0.1000E-05   eV
 max force / atom convergence tol.              : ignored
 convergence tolerance window                   :          3   cycles
 max. number of SCF cycles                      :         30
 number of fixed-spin iterations                :         10
 smearing scheme                                : Gaussian
 smearing width                                 : 0.2000       eV
 Fermi energy convergence tolerance             : 0.2721E-13   eV
 periodic dipole correction                     : NONE

 ************************** Density Mixing Parameters **************************
  
 density-mixing scheme                          : Pulay
 max. length of mixing history                  :         20
 charge density mixing amplitude                : 0.4000    
 cut-off energy for mixing                      :  800.0       eV

 *********************** Population Analysis Parameters ************************
  
 Population analysis with cutoff                :  3.000       A

 ********************** Geometry Optimization Parameters ***********************
  
 optimization method                            : BFGS
 variable cell method                           : fixed basis quality
 max. number of steps                           :          2
 estimated bulk modulus                         :  500.0       GPa
 estimated <frequency>                          :  1668.       cm-1
 geom line minimiser                            : on
 with line minimiser tolerance                  :     0.4000
 total energy convergence tolerance             : 0.2000E-04   eV/atom
        max ionic |force| tolerance             : 0.5000E-01   eV/A
 max ionic |displacement| tolerance             : 0.1000E-02   A
   max |stress component| tolerance             : 0.1000       GPa
 convergence tolerance window                   :          2   steps
 backup results every                           :          5   steps
 write geom trajectory file                     : on

 *******************************************************************************
  
 
                           -------------------------------
                                      Unit Cell
                           -------------------------------
        Real Lattice(A)                      Reciprocal Lattice(1/A)
   8.0200000   0.0000000   0.0000000        0.7834396   0.0000000   0.0255787
   0.0000000   5.1600000   0.0000000        0.0000000   1.2176716   0.0000000
  -0.2328283   0.0000000   7.1312002        0.0000000   0.0000000   0.8810838
 
                       Lattice parameters(A)       Cell Angles
                    a =    8.020000          alpha =   90.000000
                    b =    5.160000          beta  =   91.870000
                    c =    7.135000          gamma =   90.000000
 
                       Current cell volume =  295.111884       A**3
                                   density =    1.803102   AMU/A**3
                                           =    2.994122     g/cm^3
 
                           -------------------------------
                                     Cell Contents
                           -------------------------------
                         Total number of ions in cell =   24
                      Total number of species in cell =    4
                        Max number of any one species =   16
 
            xxxxxxxxxxxxxxxxxxxxxxxxxxxxxxxxxxxxxxxxxxxxxxxxxxxxxxxxxxxx
            x  Element    Atom        Fractional coordinates of atoms  x
            x            Number           u          v          w      x
            x----------------------------------------------------------x
            x  O            1         0.240100   0.000000   0.062200   x 
            x  O            2         0.740100   0.500000   0.062200   x 
            x  O            3         0.469400   0.233400   0.202600   x 
            x  O            4         0.969400   0.266600   0.202600   x 
            x  O            5         0.969400   0.733400   0.202600   x 
            x  O            6         0.469400   0.766600   0.202600   x 
            x  O            7         0.288600   0.000000   0.402100   x 
            x  O            8         0.788600   0.500000   0.402100   x 
            x  O            9         0.711400   0.000000   0.597900   x 
            x  O           10         0.211400   0.500000   0.597900   x 
            x  O           11         0.530600   0.233400   0.797400   x 
            x  O           12         0.030600   0.266600   0.797400   x 
            x  O           13         0.030600   0.733400   0.797400   x 
            x  O           14         0.530600   0.766600   0.797400   x 
            x  O           15         0.759900   0.000000   0.937800   x 
            x  O           16         0.259900   0.500000   0.937800   x 
            x  Na           1         0.000000   0.000000   0.500000   x 
            x  Na           2         0.500000   0.500000   0.500000   x 
            x  S            1         0.361900   0.000000   0.221600   x 
            x  S            2         0.861900   0.500000   0.221600   x 
            x  S            3         0.638100   0.000000   0.778400   x 
            x  S            4         0.138100   0.500000   0.778400   x 
            x  V            1         0.000000   0.000000   0.000000   x 
            x  V            2         0.500000   0.500000   0.000000   x 
            xxxxxxxxxxxxxxxxxxxxxxxxxxxxxxxxxxxxxxxxxxxxxxxxxxxxxxxxxxxx
 
 
                         No user defined ionic velocities
 
                           -------------------------------
                                   Details of Species
                           -------------------------------
 
                               Mass of species in AMU
                                    O   15.9994000
                                    Na   22.9897700
                                    S   32.0660000
                                    V   50.9415000
 
                          Electric Quadrupole Moment (Barn)
                                    O   -0.0255800 Isotope 17
                                    Na    0.1040000 Isotope 23
                                    S   -0.0678000 Isotope 33
                                    V   -0.0520000 Isotope 51
 
                          Files used for pseudopotentials:
                                    O 2|1.7|7|7|9|20:21(qc=5)
                                    Na 2|1.8|8|9|10|20U:30:21(qc=5)
                                    S 3|1.8|5|6|7|30:31:32(qc=5)
                                    V 3|2.0|2.0|1.0|7|7|9|30U:40:31:32(qc=5)
 
                           -------------------------------
                              k-Points For BZ Sampling
                           -------------------------------
                       MP grid size for SCF calculation is  3  4  3
                            with an offset of   0.000  0.000  0.000
                       Number of kpoints used =            18
 
                           -------------------------------
                               Symmetry and Constraints
                           -------------------------------
 
                      Cell is a supercell containing 2 primitive cells
                      Maximum deviation from symmetry =  0.00000         ANG
 
                      Number of symmetry operations   =           1
                      Number of ionic constraints     =           3
                      Point group of crystal =     1: C1, 1, 1
                      Space group of crystal =    12: C2/m, -C 2y
 
             Set iprint > 1 for details on symmetry rotations/translations
 
                         Centre of mass is constrained
             Set iprint > 1 for details of linear ionic constraints
 
                         Number of cell constraints= 0
                         Cell constraints are:  1 2 3 4 5 6
 
                         External pressure/stress (GPa)
                          0.00000   0.00000   0.00000
                                    0.00000   0.00000
                                              0.00000
  
+---------------- MEMORY AND SCRATCH DISK ESTIMATES PER PROCESS --------------+
|                                                     Memory          Disk    |
| Baseline code, static data and system overhead      164.0 MB         0.0 MB |
| BLAS internal memory storage                          0.0 MB         0.0 MB |
| Model and support data                             1187.4 MB         0.0 MB |
| Electronic energy minimisation requirements         362.6 MB         0.0 MB |
| Force calculation requirements                       37.6 MB         0.0 MB |
| Stress calculation requirements                      41.5 MB         0.0 MB |
|                                               ----------------------------- |
| Approx. total storage required per process         1714.1 MB         0.0 MB |
|                                                                             |
| Requirements will fluctuate during execution and may exceed these estimates |
+-----------------------------------------------------------------------------+
Calculating total energy with cut-off of  800.000 eV.
------------------------------------------------------------------------ <-- SCF
SCF loop      Energy           Fermi           Energy gain       Timer   <-- SCF
                               energy          per atom          (sec)   <-- SCF
------------------------------------------------------------------------ <-- SCF
Initial  -1.08078851E+004  0.00000000E+000                        19.22  <-- SCF
      1  -1.42822820E+004  3.80580549E+000   1.44766540E+002      51.08  <-- SCF
      2  -1.47405103E+004  3.51758641E+000   1.90928472E+001      73.73  <-- SCF
      3  -1.47505652E+004  3.55759873E+000   4.18952081E-001      98.49  <-- SCF
      4  -1.47292044E+004  2.44946270E+000  -8.90032374E-001     128.62  <-- SCF
      5  -1.47289136E+004  3.43501617E+000  -1.21154390E-002     163.03  <-- SCF
      6  -1.47302601E+004  2.99050816E+000   5.61018153E-002     194.24  <-- SCF
      7  -1.47285058E+004  3.25581586E+000  -7.30947402E-002     223.72  <-- SCF
      8  -1.47289661E+004  3.39092918E+000   1.91785795E-002     253.02  <-- SCF
      9  -1.47288246E+004  3.41162744E+000  -5.89494917E-003     282.18  <-- SCF
     10  -1.47289323E+004  3.43625795E+000   4.48599590E-003     311.23  <-- SCF
     11  -1.47289197E+004  3.44217299E+000  -5.25800260E-004     340.27  <-- SCF
     12  -1.47289330E+004  3.44998954E+000   5.57702572E-004     366.76  <-- SCF
     13  -1.47289256E+004  3.45500035E+000  -3.11699508E-004     391.06  <-- SCF
     14  -1.47289321E+004  3.45607728E+000   2.73020473E-004     415.10  <-- SCF
     15  -1.47289321E+004  3.45645045E+000  -1.75995954E-006     437.08  <-- SCF
     16  -1.47289322E+004  3.45676807E+000   6.57763210E-006     457.90  <-- SCF
------------------------------------------------------------------------ <-- SCF
 
Final energy, E             =  -14728.47753178     eV
Final free energy (E-TS)    =  -14728.93223679     eV
(energies not corrected for finite basis set)
 
NB est. 0K energy (E-0.5TS)      =  -14728.70488428     eV
 

Writing analysis data to 71760.castep_bin

Writing model to 71760.check

WARNING - doing cell minimisation without finite basis correction:
        => now searching for a stationary and not minimum energy
 
+---------------- MEMORY AND SCRATCH DISK ESTIMATES PER PROCESS --------------+
|                                                     Memory          Disk    |
| Model and support data                             1186.6 MB         0.0 MB |
| Electronic energy minimisation requirements         362.6 MB         0.0 MB |
| Geometry minimisation requirements                  482.4 MB         0.0 MB |
|                                               ----------------------------- |
| Approx. total storage required per process         2031.6 MB         0.0 MB |
|                                                                             |
| Requirements will fluctuate during execution and may exceed these estimates |
+-----------------------------------------------------------------------------+
 
 
 ******************************** Constrained Forces ********************************
 *                                                                                  *
 *                           Cartesian components (eV/A)                            *
 * -------------------------------------------------------------------------------- *
 *                         x                    y                    z              *
 *                                                                                  *
 * O               1     -1.51326             -0.00000             -1.73577         *
 * O               2     -1.50899              0.00000             -1.72907         *
 * O               3      1.20463              1.78320             -0.30269         *
 * O               4      1.20718             -1.78529             -0.30235         *
 * O               5      1.20718              1.78529             -0.30235         *
 * O               6      1.20464             -1.78320             -0.30269         *
 * O               7     -1.25643             -0.00000              2.56944         *
 * O               8     -1.25663             -0.00000              2.56994         *
 * O               9      1.25644              0.00001             -2.56948         *
 * O              10      1.25661              0.00001             -2.56993         *
 * O              11     -1.20462              1.78320              0.30269         *
 * O              12     -1.20719             -1.78529              0.30236         *
 * O              13     -1.20719              1.78529              0.30236         *
 * O              14     -1.20462             -1.78320              0.30268         *
 * O              15      1.51325              0.00000              1.73577         *
 * O              16      1.50900             -0.00000              1.72909         *
 * Na              1     -0.00000              0.00000             -0.00000         *
 * Na              2      0.00000             -0.00000             -0.00000         *
 * S               1      0.13122              0.00000             -0.32864         *
 * S               2      0.13566             -0.00000             -0.32971         *
 * S               3     -0.13123              0.00001              0.32866         *
 * S               4     -0.13567              0.00000              0.32969         *
 * V               1     -0.00001             -0.00001             -0.00000         *
 * V               2      0.00000             -0.00000              0.00001         *
 *                                                                                  *
 ************************************************************************************
 
 ***************** Stress Tensor *****************
 *                                               *
 *          Cartesian components (GPa)           *
 * --------------------------------------------- *
 *             x             y             z     *
 *                                               *
 *  x    -11.011267     -0.000013      0.872748  *
 *  y     -0.000013    -11.581216      0.000009  *
 *  z      0.872748      0.000009    -12.457132  *
 *                                               *
 *  Pressure:   11.6832                          *
 *                                               *
 *************************************************
 BFGS: finished iteration     0 with enthalpy= -1.47289322E+004 eV
  
 +-----------+-----------------+-----------------+------------+-----+ <-- BFGS
 | Parameter |      value      |    tolerance    |    units   | OK? | <-- BFGS
 +-----------+-----------------+-----------------+------------+-----+ <-- BFGS
 |  dE/ion   |   0.000000E+000 |   2.000000E-005 |         eV | No  | <-- BFGS
 |  |F|max   |   2.860715E+000 |   5.000000E-002 |       eV/A | No  | <-- BFGS
 |  |dR|max  |   0.000000E+000 |   1.000000E-003 |          A | No  | <-- BFGS
 |   Smax    |   1.245713E+001 |   1.000000E-001 |        GPa | No  | <-- BFGS
 +-----------+-----------------+-----------------+------------+-----+ <-- BFGS
  

================================================================================
 Starting BFGS iteration          1 ...
================================================================================
  
 +------------+-------------+-------------+-----------------+ <-- min BFGS
 |    Step    |   lambda    |   F.delta'  |    enthalpy     | <-- min BFGS
 +------------+-------------+-------------+-----------------+ <-- min BFGS
 |  previous  |    0.000000 |    2.235846 |   -14728.932237 | <-- min BFGS
 +------------+-------------+-------------+-----------------+ <-- min BFGS
  

--------------------------------------------------------------------------------
 BFGS: starting iteration         1 with trial guess (lambda=  1.000000)
--------------------------------------------------------------------------------
 
+---------------- MEMORY AND SCRATCH DISK ESTIMATES PER PROCESS --------------+
|                                                     Memory          Disk    |
| Model and support data                             1190.8 MB         0.0 MB |
| Electronic energy minimisation requirements         370.3 MB         0.0 MB |
| Geometry minimisation requirements                  492.6 MB         0.0 MB |
|                                               ----------------------------- |
| Approx. total storage required per process         2053.7 MB         0.0 MB |
|                                                                             |
| Requirements will fluctuate during execution and may exceed these estimates |
+-----------------------------------------------------------------------------+
 
 
                           -------------------------------
                                      Unit Cell
                           -------------------------------
        Real Lattice(A)              Reciprocal Lattice(1/A)
   8.0788736   0.0000001  -0.0046663        0.7777453  -0.0000000   0.0258168
   0.0000000   5.1998394  -0.0000000       -0.0000000   1.2083422   0.0000000
  -0.2386866  -0.0000000   7.1905585        0.0005047   0.0000000   0.8738272
 
                       Lattice parameters(A)       Cell Angles
                    a =    8.078875          alpha =   90.000001
                    b =    5.199839          beta  =   91.934297
                    c =    7.194519          gamma =   89.999999
 
                Current cell volume =  302.061267 A**3
 
                           -------------------------------
                                     Cell Contents
                           -------------------------------
 
            xxxxxxxxxxxxxxxxxxxxxxxxxxxxxxxxxxxxxxxxxxxxxxxxxxxxxxxxxxxxxxxxx
            x  Element         Atom        Fractional coordinates of atoms  x
            x                 Number           u          v          w      x
            x---------------------------------------------------------------x
            x  O                 1         0.239237  -0.000000   0.061127   x
            x  O                 2         0.739239   0.500000   0.061131   x
            x  O                 3         0.470057   0.234924   0.202413   x
            x  O                 4         0.970058   0.265074   0.202413   x
            x  O                 5         0.970058   0.734926   0.202413   x
            x  O                 6         0.470057   0.765076   0.202413   x
            x  O                 7         0.287955  -0.000000   0.403689   x
            x  O                 8         0.787955   0.500000   0.403689   x
            x  O                 9         0.712045   0.000000   0.596311   x
            x  O                10         0.212045   0.500000   0.596311   x
            x  O                11         0.529943   0.234924   0.797587   x
            x  O                12         0.029942   0.265074   0.797587   x
            x  O                13         0.029942   0.734926   0.797587   x
            x  O                14         0.529943   0.765076   0.797587   x
            x  O                15         0.760763   0.000000   0.938873   x
            x  O                16         0.260761   0.500000   0.938869   x
            x  Na                1        -0.000000   0.000000   0.500000   x
            x  Na                2         0.500000   0.500000   0.500000   x
            x  S                 1         0.361966   0.000000   0.221397   x
            x  S                 2         0.861969   0.500000   0.221396   x
            x  S                 3         0.638034   0.000000   0.778603   x
            x  S                 4         0.138031   0.500000   0.778604   x
            x  V                 1        -0.000000  -0.000000  -0.000000   x
            x  V                 2         0.500000   0.500000   0.000000   x
            xxxxxxxxxxxxxxxxxxxxxxxxxxxxxxxxxxxxxxxxxxxxxxxxxxxxxxxxxxxxxxxxx
 
 
------------------------------------------------------------------------ <-- SCF
SCF loop      Energy           Fermi           Energy gain       Timer   <-- SCF
                               energy          per atom          (sec)   <-- SCF
------------------------------------------------------------------------ <-- SCF
Initial  -1.47271944E+004  0.00000000E+000                       534.60  <-- SCF
      1  -1.47319218E+004  2.00334879E+000   1.96973527E-001     562.65  <-- SCF
      2  -1.47319633E+004  2.00248810E+000   1.73001337E-003     595.90  <-- SCF
      3  -1.47421599E+004  1.02420586E+000   4.24856887E-001     626.24  <-- SCF
      4  -1.47304073E+004  3.26673525E+000  -4.89689508E-001     655.96  <-- SCF
      5  -1.47322138E+004  2.28607210E+000   7.52693361E-002     687.53  <-- SCF
      6  -1.47292468E+004  3.32785355E+000  -1.23625342E-001     716.58  <-- SCF
      7  -1.47295665E+004  3.29950929E+000   1.33205853E-002     747.43  <-- SCF
      8  -1.47296100E+004  3.25894527E+000   1.81475627E-003     776.44  <-- SCF
      9  -1.47294957E+004  3.21918602E+000  -4.76499915E-003     804.73  <-- SCF
     10  -1.47295785E+004  3.20986443E+000   3.44914926E-003     833.89  <-- SCF
     11  -1.47295798E+004  3.22248980E+000   5.40659907E-005     862.76  <-- SCF
     12  -1.47295890E+004  3.23140496E+000   3.85239892E-004     889.71  <-- SCF
     13  -1.47295844E+004  3.22955854E+000  -1.92042375E-004     912.60  <-- SCF
     14  -1.47295872E+004  3.23106950E+000   1.17716542E-004     935.65  <-- SCF
     15  -1.47295874E+004  3.23010198E+000   9.53441473E-006     956.05  <-- SCF
     16  -1.47295873E+004  3.22935794E+000  -3.98957373E-006     975.60  <-- SCF
------------------------------------------------------------------------ <-- SCF
 
Final energy, E             =  -14729.13854415     eV
Final free energy (E-TS)    =  -14729.58734568     eV
(energies not corrected for finite basis set)
 
NB est. 0K energy (E-0.5TS)      =  -14729.36294492     eV
 
 
 ******************************** Constrained Forces ********************************
 *                                                                                  *
 *                           Cartesian components (eV/A)                            *
 * -------------------------------------------------------------------------------- *
 *                         x                    y                    z              *
 *                                                                                  *
 * O               1     -0.82435             -0.00000             -0.90193         *
 * O               2     -0.82168              0.00000             -0.89657         *
 * O               3      0.57499              0.93144             -0.23360         *
 * O               4      0.57789             -0.93302             -0.23203         *
 * O               5      0.57789              0.93302             -0.23203         *
 * O               6      0.57499             -0.93143             -0.23360         *
 * O               7     -0.38540             -0.00000              0.87833         *
 * O               8     -0.38415             -0.00000              0.87801         *
 * O               9      0.38539              0.00000             -0.87832         *
 * O              10      0.38415             -0.00000             -0.87801         *
 * O              11     -0.57499              0.93144              0.23360         *
 * O              12     -0.57789             -0.93301              0.23203         *
 * O              13     -0.57789              0.93302              0.23203         *
 * O              14     -0.57499             -0.93144              0.23360         *
 * O              15      0.82434              0.00000              0.90192         *
 * O              16      0.82168             -0.00000              0.89657         *
 * Na              1     -0.00000              0.00000              0.00000         *
 * Na              2      0.00000              0.00000              0.00000         *
 * S               1     -0.20525              0.00000              0.21749         *
 * S               2     -0.20096              0.00000              0.21920         *
 * S               3      0.20526             -0.00001             -0.21751         *
 * S               4      0.20096             -0.00000             -0.21919         *
 * V               1      0.00000              0.00000              0.00000         *
 * V               2      0.00000              0.00000             -0.00000         *
 *                                                                                  *
 ************************************************************************************
 
 ***************** Stress Tensor *****************
 *                                               *
 *          Cartesian components (GPa)           *
 * --------------------------------------------- *
 *             x             y             z     *
 *                                               *
 *  x     -4.990661      0.000013     -0.129613  *
 *  y      0.000013     -5.837181     -0.000003  *
 *  z     -0.129613     -0.000003     -4.719514  *
 *                                               *
 *  Pressure:    5.1825                          *
 *                                               *
 *************************************************
  
 +------------+-------------+-------------+-----------------+ <-- min BFGS
 |    Step    |   lambda    |   F.delta'  |    enthalpy     | <-- min BFGS
 +------------+-------------+-------------+-----------------+ <-- min BFGS
 |  previous  |    0.000000 |    2.235846 |   -14728.932237 | <-- min BFGS
 | trial step |    1.000000 |    1.002001 |   -14729.587346 | <-- min BFGS
 +------------+-------------+-------------+-----------------+ <-- min BFGS
  

--------------------------------------------------------------------------------
 BFGS: improving iteration         1 with line minimization (lambda=  1.812097)
--------------------------------------------------------------------------------
 
+---------------- MEMORY AND SCRATCH DISK ESTIMATES PER PROCESS --------------+
|                                                     Memory          Disk    |
| Model and support data                             1232.8 MB         0.0 MB |
| Electronic energy minimisation requirements         377.4 MB         0.0 MB |
| Geometry minimisation requirements                  502.0 MB         0.0 MB |
|                                               ----------------------------- |
| Approx. total storage required per process         2112.2 MB         0.0 MB |
|                                                                             |
| Requirements will fluctuate during execution and may exceed these estimates |
+-----------------------------------------------------------------------------+
 
 
                           -------------------------------
                                      Unit Cell
                           -------------------------------
        Real Lattice(A)              Reciprocal Lattice(1/A)
   8.1266846   0.0000001  -0.0084558        0.7731819  -0.0000000   0.0260026
   0.0000001   5.2321928  -0.0000001       -0.0000000   1.2008704   0.0000000
  -0.2434441  -0.0000001   7.2387633        0.0009032   0.0000000   0.8680219
 
                       Lattice parameters(A)       Cell Angles
                    a =    8.126689          alpha =   90.000001
                    b =    5.232193          beta  =   91.985783
                    c =    7.242856          gamma =   89.999998
 
                Current cell volume =  307.784201 A**3
 
                           -------------------------------
                                     Cell Contents
                           -------------------------------
 
            xxxxxxxxxxxxxxxxxxxxxxxxxxxxxxxxxxxxxxxxxxxxxxxxxxxxxxxxxxxxxxxxx
            x  Element         Atom        Fractional coordinates of atoms  x
            x                 Number           u          v          w      x
            x---------------------------------------------------------------x
            x  O                 1         0.238536  -0.000000   0.060255   x
            x  O                 2         0.738540   0.500000   0.060263   x
            x  O                 3         0.470590   0.236161   0.202261   x
            x  O                 4         0.970593   0.263836   0.202261   x
            x  O                 5         0.970593   0.736164   0.202261   x
            x  O                 6         0.470590   0.763839   0.202261   x
            x  O                 7         0.287432  -0.000000   0.404979   x
            x  O                 8         0.787432   0.500000   0.404979   x
            x  O                 9         0.712568   0.000000   0.595021   x
            x  O                10         0.212568   0.500000   0.595021   x
            x  O                11         0.529410   0.236161   0.797739   x
            x  O                12         0.029407   0.263836   0.797739   x
            x  O                13         0.029407   0.736164   0.797739   x
            x  O                14         0.529410   0.763839   0.797739   x
            x  O                15         0.761464   0.000000   0.939745   x
            x  O                16         0.261460   0.500000   0.939737   x
            x  Na                1        -0.000000   0.000000   0.500000   x
            x  Na                2         0.500000   0.500000   0.500000   x
            x  S                 1         0.362020   0.000000   0.221232   x
            x  S                 2         0.862024   0.500000   0.221231   x
            x  S                 3         0.637980   0.000000   0.778768   x
            x  S                 4         0.137976   0.500000   0.778769   x
            x  V                 1        -0.000000  -0.000000  -0.000000   x
            x  V                 2         0.500000   0.500000   0.000000   x
            xxxxxxxxxxxxxxxxxxxxxxxxxxxxxxxxxxxxxxxxxxxxxxxxxxxxxxxxxxxxxxxxx
 
 
------------------------------------------------------------------------ <-- SCF
SCF loop      Energy           Fermi           Energy gain       Timer   <-- SCF
                               energy          per atom          (sec)   <-- SCF
------------------------------------------------------------------------ <-- SCF
Initial  -1.47280436E+004  0.00000000E+000                      1052.88  <-- SCF
      1  -1.47313616E+004  2.04865359E+000   1.38249078E-001    1082.68  <-- SCF
      2  -1.47313907E+004  2.04801068E+000   1.21025364E-003    1118.77  <-- SCF
      3  -1.47427398E+004  8.02775314E-001   4.72881401E-001    1151.36  <-- SCF
      4  -1.47309321E+004  3.01828782E+000  -4.91987681E-001    1183.43  <-- SCF
      5  -1.47309992E+004  2.47304914E+000   2.79379682E-003    1217.74  <-- SCF
      6  -1.47295520E+004  3.11259484E+000  -6.02987355E-002    1249.58  <-- SCF
      7  -1.47296394E+004  3.06990337E+000   3.64052016E-003    1279.81  <-- SCF
      8  -1.47297969E+004  3.08063846E+000   6.56358803E-003    1310.51  <-- SCF
      9  -1.47297358E+004  3.04984651E+000  -2.54440747E-003    1340.12  <-- SCF
     10  -1.47297128E+004  3.03084283E+000  -9.59493035E-004    1372.53  <-- SCF
     11  -1.47297544E+004  3.03954841E+000   1.73455190E-003    1402.31  <-- SCF
     12  -1.47297708E+004  3.04268065E+000   6.80664943E-004    1431.72  <-- SCF
     13  -1.47297704E+004  3.04413943E+000  -1.29698896E-005    1456.85  <-- SCF
     14  -1.47297712E+004  3.04554542E+000   3.10999601E-005    1479.42  <-- SCF
     15  -1.47297712E+004  3.04631591E+000  -4.15507903E-007    1501.34  <-- SCF
     16  -1.47297713E+004  3.04551716E+000   3.18659513E-006    1522.66  <-- SCF
------------------------------------------------------------------------ <-- SCF
 
Final energy, E             =  -14729.32850785     eV
Final free energy (E-TS)    =  -14729.77125570     eV
(energies not corrected for finite basis set)
 
NB est. 0K energy (E-0.5TS)      =  -14729.54988177     eV
 
 
 ******************************** Constrained Forces ********************************
 *                                                                                  *
 *                           Cartesian components (eV/A)                            *
 * -------------------------------------------------------------------------------- *
 *                         x                    y                    z              *
 *                                                                                  *
 * O               1     -0.34702              0.00000             -0.31760         *
 * O               2     -0.34827              0.00000             -0.32295         *
 * O               3      0.13611              0.33863             -0.18997         *
 * O               4      0.13494             -0.33753             -0.18971         *
 * O               5      0.13494              0.33753             -0.18971         *
 * O               6      0.13612             -0.33863             -0.18997         *
 * O               7      0.21970              0.00000             -0.29011         *
 * O               8      0.22149             -0.00000             -0.29134         *
 * O               9     -0.21971             -0.00000              0.29013         *
 * O              10     -0.22148             -0.00000              0.29134         *
 * O              11     -0.13612              0.33863              0.18997         *
 * O              12     -0.13494             -0.33752              0.18971         *
 * O              13     -0.13494              0.33753              0.18971         *
 * O              14     -0.13612             -0.33863              0.18997         *
 * O              15      0.34702              0.00000              0.31760         *
 * O              16      0.34826             -0.00000              0.32294         *
 * Na              1     -0.00000              0.00000              0.00000         *
 * Na              2      0.00000              0.00000              0.00000         *
 * S               1     -0.43147             -0.00000              0.57699         *
 * S               2     -0.43561              0.00000              0.58041         *
 * S               3      0.43148             -0.00001             -0.57702         *
 * S               4      0.43562             -0.00000             -0.58039         *
 * V               1      0.00000             -0.00000              0.00000         *
 * V               2     -0.00000              0.00000             -0.00000         *
 *                                                                                  *
 ************************************************************************************
 
 ***************** Stress Tensor *****************
 *                                               *
 *          Cartesian components (GPa)           *
 * --------------------------------------------- *
 *             x             y             z     *
 *                                               *
 *  x     -0.766804      0.000009     -0.807107  *
 *  y      0.000009     -1.787287     -0.000002  *
 *  z     -0.807107     -0.000002      0.663118  *
 *                                               *
 *  Pressure:    0.6303                          *
 *                                               *
 *************************************************
  
 +------------+-------------+-------------+-----------------+ <-- min BFGS
 |    Step    |   lambda    |   F.delta'  |    enthalpy     | <-- min BFGS
 +------------+-------------+-------------+-----------------+ <-- min BFGS
 |  previous  |    0.000000 |    2.235846 |   -14728.932237 | <-- min BFGS
 | trial step |    1.000000 |    1.002001 |   -14729.587346 | <-- min BFGS
 |  line step |    1.812097 |    0.124042 |   -14729.771256 | <-- min BFGS
 +------------+-------------+-------------+-----------------+ <-- min BFGS
  
 BFGS: finished iteration     1 with enthalpy= -1.47297713E+004 eV
  
 +-----------+-----------------+-----------------+------------+-----+ <-- BFGS
 | Parameter |      value      |    tolerance    |    units   | OK? | <-- BFGS
 +-----------+-----------------+-----------------+------------+-----+ <-- BFGS
 |  dE/ion   |   3.495912E-002 |   2.000000E-005 |         eV | No  | <-- BFGS
 |  |F|max   |   7.256952E-001 |   5.000000E-002 |       eV/A | No  | <-- BFGS
 |  |dR|max  |   2.321242E-002 |   1.000000E-003 |          A | No  | <-- BFGS
 |   Smax    |   1.787287E+000 |   1.000000E-001 |        GPa | No  | <-- BFGS
 +-----------+-----------------+-----------------+------------+-----+ <-- BFGS
  

================================================================================
 Starting BFGS iteration          2 ...
================================================================================
  
 +------------+-------------+-------------+-----------------+ <-- min BFGS
 |    Step    |   lambda    |   F.delta'  |    enthalpy     | <-- min BFGS
 +------------+-------------+-------------+-----------------+ <-- min BFGS
 |  previous  |    0.000000 |    0.432446 |   -14729.771256 | <-- min BFGS
 +------------+-------------+-------------+-----------------+ <-- min BFGS
  

--------------------------------------------------------------------------------
 BFGS: starting iteration         2 with trial guess (lambda=  1.000000)
--------------------------------------------------------------------------------
 
+---------------- MEMORY AND SCRATCH DISK ESTIMATES PER PROCESS --------------+
|                                                     Memory          Disk    |
| Model and support data                             1297.7 MB         0.0 MB |
| Electronic energy minimisation requirements         380.1 MB         0.0 MB |
| Geometry minimisation requirements                  505.4 MB         0.0 MB |
|                                               ----------------------------- |
| Approx. total storage required per process         2183.2 MB         0.0 MB |
|                                                                             |
| Requirements will fluctuate during execution and may exceed these estimates |
+-----------------------------------------------------------------------------+
 
 
                           -------------------------------
                                      Unit Cell
                           -------------------------------
        Real Lattice(A)              Reciprocal Lattice(1/A)
   8.1358794   0.0000001  -0.0041316        0.7722940  -0.0000000   0.0255867
   0.0000000   5.2420836  -0.0000000       -0.0000000   1.1986046   0.0000000
  -0.2398656  -0.0000001   7.2399629        0.0004407   0.0000000   0.8678623
 
                       Lattice parameters(A)       Cell Angles
                    a =    8.135880          alpha =   90.000001
                    b =    5.242084          beta  =   91.926656
                    c =    7.243935          gamma =   89.999999
 
                Current cell volume =  308.771695 A**3
 
                           -------------------------------
                                     Cell Contents
                           -------------------------------
 
            xxxxxxxxxxxxxxxxxxxxxxxxxxxxxxxxxxxxxxxxxxxxxxxxxxxxxxxxxxxxxxxxx
            x  Element         Atom        Fractional coordinates of atoms  x
            x                 Number           u          v          w      x
            x---------------------------------------------------------------x
            x  O                 1         0.238256  -0.000000   0.059958   x
            x  O                 2         0.738260   0.500000   0.059963   x
            x  O                 3         0.470720   0.236594   0.202120   x
            x  O                 4         0.970722   0.263404   0.202120   x
            x  O                 5         0.970722   0.736596   0.202120   x
            x  O                 6         0.470720   0.763406   0.202120   x
            x  O                 7         0.287504  -0.000000   0.404913   x
            x  O                 8         0.787505   0.500000   0.404913   x
            x  O                 9         0.712496   0.000000   0.595087   x
            x  O                10         0.212495   0.500000   0.595087   x
            x  O                11         0.529280   0.236594   0.797880   x
            x  O                12         0.029278   0.263404   0.797880   x
            x  O                13         0.029278   0.736596   0.797880   x
            x  O                14         0.529280   0.763406   0.797880   x
            x  O                15         0.761744   0.000000   0.940042   x
            x  O                16         0.261740   0.500000   0.940037   x
            x  Na                1        -0.000000   0.000000   0.500000   x
            x  Na                2         0.500000   0.500000   0.500000   x
            x  S                 1         0.361782   0.000000   0.221599   x
            x  S                 2         0.861784   0.500000   0.221600   x
            x  S                 3         0.638218   0.000000   0.778401   x
            x  S                 4         0.138216   0.500000   0.778400   x
            x  V                 1        -0.000000  -0.000000  -0.000000   x
            x  V                 2         0.500000   0.500000   0.000000   x
            xxxxxxxxxxxxxxxxxxxxxxxxxxxxxxxxxxxxxxxxxxxxxxxxxxxxxxxxxxxxxxxxx
 
 
------------------------------------------------------------------------ <-- SCF
SCF loop      Energy           Fermi           Energy gain       Timer   <-- SCF
                               energy          per atom          (sec)   <-- SCF
------------------------------------------------------------------------ <-- SCF
Initial  -1.47292575E+004  0.00000000E+000                      1604.64  <-- SCF
      1  -1.47299461E+004  2.79851966E+000   2.86916693E-002    1634.64  <-- SCF
      2  -1.47299479E+004  2.79847543E+000   7.67122360E-005    1671.80  <-- SCF
      3  -1.47385208E+004  1.38734668E+000   3.57202486E-001    1704.81  <-- SCF
      4  -1.47304190E+004  2.96761391E+000  -3.37574321E-001    1736.58  <-- SCF
      5  -1.47294545E+004  3.00164516E+000  -4.01890069E-002    1771.40  <-- SCF
      6  -1.47297713E+004  3.03684362E+000   1.32002978E-002    1802.67  <-- SCF
      7  -1.47297748E+004  3.03641436E+000   1.46242295E-004    1832.70  <-- SCF
      8  -1.47297714E+004  3.03748163E+000  -1.40320782E-004    1858.75  <-- SCF
      9  -1.47297421E+004  3.04219769E+000  -1.22228308E-003    1891.89  <-- SCF
     10  -1.47297927E+004  3.03376855E+000   2.10919610E-003    1922.57  <-- SCF
     11  -1.47297853E+004  3.03766925E+000  -3.10297467E-004    1952.46  <-- SCF
     12  -1.47297897E+004  3.03969573E+000   1.85026137E-004    1980.52  <-- SCF
     13  -1.47297950E+004  3.04046188E+000   2.21687724E-004    2006.01  <-- SCF
     14  -1.47297954E+004  3.04116024E+000   1.33313656E-005    2029.71  <-- SCF
     15  -1.47297954E+004  3.04151930E+000   1.12310200E-006    2051.19  <-- SCF
     16  -1.47297954E+004  3.04194937E+000   2.15277336E-007    2072.38  <-- SCF
------------------------------------------------------------------------ <-- SCF
 
Final energy, E             =  -14729.35667578     eV
Final free energy (E-TS)    =  -14729.79538445     eV
(energies not corrected for finite basis set)
 
NB est. 0K energy (E-0.5TS)      =  -14729.57603012     eV
 
 
 ******************************** Constrained Forces ********************************
 *                                                                                  *
 *                           Cartesian components (eV/A)                            *
 * -------------------------------------------------------------------------------- *
 *                         x                    y                    z              *
 *                                                                                  *
 * O               1     -0.19139              0.00000             -0.13385         *
 * O               2     -0.19301              0.00000             -0.13725         *
 * O               3     -0.00650              0.13778             -0.13739         *
 * O               4     -0.00751             -0.13753             -0.13767         *
 * O               5     -0.00751              0.13753             -0.13767         *
 * O               6     -0.00649             -0.13778             -0.13739         *
 * O               7      0.13616              0.00000             -0.10614         *
 * O               8      0.13642             -0.00000             -0.10597         *
 * O               9     -0.13616             -0.00000              0.10615         *
 * O              10     -0.13641             -0.00000              0.10597         *
 * O              11      0.00649              0.13778              0.13739         *
 * O              12      0.00751             -0.13753              0.13767         *
 * O              13      0.00751              0.13753              0.13767         *
 * O              14      0.00649             -0.13778              0.13739         *
 * O              15      0.19139              0.00000              0.13386         *
 * O              16      0.19301              0.00000              0.13724         *
 * Na              1     -0.00000             -0.00000              0.00000         *
 * Na              2     -0.00000             -0.00000              0.00000         *
 * S               1     -0.21708              0.00000              0.11450         *
 * S               2     -0.21820              0.00000              0.11595         *
 * S               3      0.21708              0.00000             -0.11451         *
 * S               4      0.21821              0.00000             -0.11595         *
 * V               1      0.00000              0.00000              0.00000         *
 * V               2      0.00000              0.00000              0.00000         *
 *                                                                                  *
 ************************************************************************************
 
 ***************** Stress Tensor *****************
 *                                               *
 *          Cartesian components (GPa)           *
 * --------------------------------------------- *
 *             x             y             z     *
 *                                               *
 *  x      0.007910      0.000005     -0.293903  *
 *  y      0.000005     -0.605489     -0.000003  *
 *  z     -0.293903     -0.000003      0.700064  *
 *                                               *
 *  Pressure:   -0.0342                          *
 *                                               *
 *************************************************
  
 +------------+-------------+-------------+-----------------+ <-- min BFGS
 |    Step    |   lambda    |   F.delta'  |    enthalpy     | <-- min BFGS
 +------------+-------------+-------------+-----------------+ <-- min BFGS
 |  previous  |    0.000000 |    0.432446 |   -14729.771256 | <-- min BFGS
 | trial step |    1.000000 |    0.154285 |   -14729.795384 | <-- min BFGS
 +------------+-------------+-------------+-----------------+ <-- min BFGS
  

--------------------------------------------------------------------------------
 BFGS: improving iteration         2 with line minimization (lambda=  1.554658)
--------------------------------------------------------------------------------
 
+---------------- MEMORY AND SCRATCH DISK ESTIMATES PER PROCESS --------------+
|                                                     Memory          Disk    |
| Model and support data                             1298.0 MB         0.0 MB |
| Electronic energy minimisation requirements         380.6 MB         0.0 MB |
| Geometry minimisation requirements                  506.0 MB         0.0 MB |
|                                               ----------------------------- |
| Approx. total storage required per process         2184.6 MB         0.0 MB |
|                                                                             |
| Requirements will fluctuate during execution and may exceed these estimates |
+-----------------------------------------------------------------------------+
 
 
                           -------------------------------
                                      Unit Cell
                           -------------------------------
        Real Lattice(A)              Reciprocal Lattice(1/A)
   8.1409794   0.0000001  -0.0017332        0.7718026  -0.0000000   0.0253565
   0.0000000   5.2475696  -0.0000000       -0.0000000   1.1973515   0.0000000
  -0.2378808  -0.0000001   7.2406283        0.0001847   0.0000000   0.8677740
 
                       Lattice parameters(A)       Cell Angles
                    a =    8.140980          alpha =   90.000001
                    b =    5.247570          beta  =   91.893895
                    c =    7.244535          gamma =   89.999999
 
                Current cell volume =  309.320056 A**3
 
                           -------------------------------
                                     Cell Contents
                           -------------------------------
 
            xxxxxxxxxxxxxxxxxxxxxxxxxxxxxxxxxxxxxxxxxxxxxxxxxxxxxxxxxxxxxxxxx
            x  Element         Atom        Fractional coordinates of atoms  x
            x                 Number           u          v          w      x
            x---------------------------------------------------------------x
            x  O                 1         0.238101  -0.000000   0.059794   x
            x  O                 2         0.738104   0.500000   0.059796   x
            x  O                 3         0.470791   0.236834   0.202041   x
            x  O                 4         0.970793   0.263164   0.202042   x
            x  O                 5         0.970793   0.736836   0.202042   x
            x  O                 6         0.470791   0.763166   0.202041   x
            x  O                 7         0.287544  -0.000000   0.404877   x
            x  O                 8         0.787546   0.500000   0.404876   x
            x  O                 9         0.712456   0.000000   0.595123   x
            x  O                10         0.212454   0.500000   0.595124   x
            x  O                11         0.529209   0.236834   0.797959   x
            x  O                12         0.029207   0.263164   0.797958   x
            x  O                13         0.029207   0.736836   0.797958   x
            x  O                14         0.529209   0.763166   0.797959   x
            x  O                15         0.761899   0.000000   0.940206   x
            x  O                16         0.261896   0.500000   0.940204   x
            x  Na                1        -0.000000   0.000000   0.500000   x
            x  Na                2         0.500000   0.500000   0.500000   x
            x  S                 1         0.361649   0.000000   0.221803   x
            x  S                 2         0.861650   0.500000   0.221805   x
            x  S                 3         0.638351   0.000000   0.778197   x
            x  S                 4         0.138350   0.500000   0.778195   x
            x  V                 1        -0.000000  -0.000000  -0.000000   x
            x  V                 2         0.500000   0.500000   0.000000   x
            xxxxxxxxxxxxxxxxxxxxxxxxxxxxxxxxxxxxxxxxxxxxxxxxxxxxxxxxxxxxxxxxx
 
 
------------------------------------------------------------------------ <-- SCF
SCF loop      Energy           Fermi           Energy gain       Timer   <-- SCF
                               energy          per atom          (sec)   <-- SCF
------------------------------------------------------------------------ <-- SCF
Initial  -1.47293309E+004  0.00000000E+000                      2149.30  <-- SCF
      1  -1.47298420E+004  2.90728328E+000   2.12972368E-002    2179.37  <-- SCF
      2  -1.47298426E+004  2.90726970E+000   2.35385732E-005    2214.20  <-- SCF
      3  -1.47336589E+004  2.24297981E+000   1.59014265E-001    2247.04  <-- SCF
      4  -1.47295249E+004  3.05504402E+000  -1.72252501E-001    2278.76  <-- SCF
      5  -1.47297841E+004  2.99595559E+000   1.08015334E-002    2312.72  <-- SCF
      6  -1.47296712E+004  3.02257132E+000  -4.70222927E-003    2343.06  <-- SCF
      7  -1.47297656E+004  3.03891891E+000   3.93287816E-003    2375.08  <-- SCF
      8  -1.47297947E+004  3.04153525E+000   1.21135017E-003    2405.50  <-- SCF
      9  -1.47297922E+004  3.03957995E+000  -1.04943925E-004    2433.06  <-- SCF
     10  -1.47297991E+004  3.03819428E+000   2.86750203E-004    2460.44  <-- SCF
     11  -1.47297986E+004  3.03886489E+000  -1.98599783E-005    2483.37  <-- SCF
     12  -1.47297989E+004  3.03911425E+000   1.38492471E-005    2505.67  <-- SCF
     13  -1.47297989E+004  3.03937955E+000   4.93284666E-007    2526.20  <-- SCF
     14  -1.47297989E+004  3.03959920E+000   4.50246574E-007    2546.67  <-- SCF
------------------------------------------------------------------------ <-- SCF
 
Final energy, E             =  -14729.36249602     eV
Final free energy (E-TS)    =  -14729.79893962     eV
(energies not corrected for finite basis set)
 
NB est. 0K energy (E-0.5TS)      =  -14729.58071782     eV
 
 
 ******************************** Constrained Forces ********************************
 *                                                                                  *
 *                           Cartesian components (eV/A)                            *
 * -------------------------------------------------------------------------------- *
 *                         x                    y                    z              *
 *                                                                                  *
 * O               1     -0.10908              0.00000             -0.03567         *
 * O               2     -0.10980              0.00000             -0.03575         *
 * O               3     -0.08330              0.03121             -0.10845         *
 * O               4     -0.08349             -0.03095             -0.10828         *
 * O               5     -0.08349              0.03095             -0.10828         *
 * O               6     -0.08330             -0.03121             -0.10845         *
 * O               7      0.08854             -0.00000             -0.00123         *
 * O               8      0.08757             -0.00000             -0.00012         *
 * O               9     -0.08855             -0.00000              0.00123         *
 * O              10     -0.08757             -0.00000              0.00012         *
 * O              11      0.08330              0.03121              0.10845         *
 * O              12      0.08349             -0.03095              0.10828         *
 * O              13      0.08349              0.03095              0.10828         *
 * O              14      0.08330             -0.03121              0.10845         *
 * O              15      0.10908              0.00000              0.03567         *
 * O              16      0.10980              0.00000              0.03574         *
 * Na              1     -0.00000             -0.00000             -0.00000         *
 * Na              2     -0.00000             -0.00000              0.00000         *
 * S               1     -0.09864              0.00000             -0.14175         *
 * S               2     -0.09708              0.00000             -0.14361         *
 * S               3      0.09864             -0.00000              0.14174         *
 * S               4      0.09708             -0.00000              0.14362         *
 * V               1      0.00000              0.00000              0.00000         *
 * V               2     -0.00000              0.00000             -0.00000         *
 *                                                                                  *
 ************************************************************************************
 
 ***************** Stress Tensor *****************
 *                                               *
 *          Cartesian components (GPa)           *
 * --------------------------------------------- *
 *             x             y             z     *
 *                                               *
 *  x      0.415368      0.000003     -0.012728  *
 *  y      0.000003      0.023995     -0.000002  *
 *  z     -0.012728     -0.000002      0.701529  *
 *                                               *
 *  Pressure:   -0.3803                          *
 *                                               *
 *************************************************
  
 +------------+-------------+-------------+-----------------+ <-- min BFGS
 |    Step    |   lambda    |   F.delta'  |    enthalpy     | <-- min BFGS
 +------------+-------------+-------------+-----------------+ <-- min BFGS
 |  previous  |    0.000000 |    0.432446 |   -14729.771256 | <-- min BFGS
 | trial step |    1.000000 |    0.154285 |   -14729.795384 | <-- min BFGS
 |  line step |    1.554658 |    0.003436 |   -14729.798940 | <-- min BFGS
 +------------+-------------+-------------+-----------------+ <-- min BFGS
  
 BFGS: finished iteration     2 with enthalpy= -1.47297989E+004 eV
  
 +-----------+-----------------+-----------------+------------+-----+ <-- BFGS
 | Parameter |      value      |    tolerance    |    units   | OK? | <-- BFGS
 +-----------+-----------------+-----------------+------------+-----+ <-- BFGS
 |  dE/ion   |   1.153497E-003 |   2.000000E-005 |         eV | No  | <-- BFGS
 |  |F|max   |   1.733518E-001 |   5.000000E-002 |       eV/A | No  | <-- BFGS
 |  |dR|max  |   5.238185E-003 |   1.000000E-003 |          A | No  | <-- BFGS
 |   Smax    |   7.015293E-001 |   1.000000E-001 |        GPa | No  | <-- BFGS
 +-----------+-----------------+-----------------+------------+-----+ <-- BFGS
  
 BFGS: WARNING - Geometry optimization failed to converge after          2 steps

================================================================================
 BFGS: Final Configuration:
================================================================================
 
                           -------------------------------
                                      Unit Cell
                           -------------------------------
        Real Lattice(A)              Reciprocal Lattice(1/A)
   8.1409794   0.0000001  -0.0017332        0.7718026  -0.0000000   0.0253565
   0.0000000   5.2475696  -0.0000000       -0.0000000   1.1973515   0.0000000
  -0.2378808  -0.0000001   7.2406283        0.0001847   0.0000000   0.8677740
 
                       Lattice parameters(A)       Cell Angles
                    a =    8.140980          alpha =   90.000001
                    b =    5.247570          beta  =   91.893895
                    c =    7.244535          gamma =   89.999999
 
                Current cell volume =  309.320056 A**3
 
                           -------------------------------
                                     Cell Contents
                           -------------------------------
 
            xxxxxxxxxxxxxxxxxxxxxxxxxxxxxxxxxxxxxxxxxxxxxxxxxxxxxxxxxxxxxxxxx
            x  Element         Atom        Fractional coordinates of atoms  x
            x                 Number           u          v          w      x
            x---------------------------------------------------------------x
            x  O                 1         0.238101  -0.000000   0.059794   x
            x  O                 2         0.738104   0.500000   0.059796   x
            x  O                 3         0.470791   0.236834   0.202041   x
            x  O                 4         0.970793   0.263164   0.202042   x
            x  O                 5         0.970793   0.736836   0.202042   x
            x  O                 6         0.470791   0.763166   0.202041   x
            x  O                 7         0.287544  -0.000000   0.404877   x
            x  O                 8         0.787546   0.500000   0.404876   x
            x  O                 9         0.712456   0.000000   0.595123   x
            x  O                10         0.212454   0.500000   0.595124   x
            x  O                11         0.529209   0.236834   0.797959   x
            x  O                12         0.029207   0.263164   0.797958   x
            x  O                13         0.029207   0.736836   0.797958   x
            x  O                14         0.529209   0.763166   0.797959   x
            x  O                15         0.761899   0.000000   0.940206   x
            x  O                16         0.261896   0.500000   0.940204   x
            x  Na                1        -0.000000   0.000000   0.500000   x
            x  Na                2         0.500000   0.500000   0.500000   x
            x  S                 1         0.361649   0.000000   0.221803   x
            x  S                 2         0.861650   0.500000   0.221805   x
            x  S                 3         0.638351   0.000000   0.778197   x
            x  S                 4         0.138350   0.500000   0.778195   x
            x  V                 1        -0.000000  -0.000000  -0.000000   x
            x  V                 2         0.500000   0.500000   0.000000   x
[...]
 * S               4      0.03601              0.00007             -0.01198         *
 * V               1      0.00002              0.00002             -0.00002         *
 * V               2     -0.00002              0.00001             -0.00001         *
 *                                                                                  *
 ************************************************************************************
 
 ***************** Stress Tensor *****************
 *                                               *
 *          Cartesian components (GPa)           *
 * --------------------------------------------- *
 *             x             y             z     *
 *                                               *
 *  x      0.032395     -0.000119     -0.020423  *
 *  y     -0.000119     -0.061724     -0.000023  *
 *  z     -0.020423     -0.000023      0.070064  *
 *                                               *
 *  Pressure:   -0.0136                          *
 *                                               *
 *************************************************
 BFGS: finished iteration     0 with enthalpy= -1.47298530E+004 eV
  
 +-----------+-----------------+-----------------+------------+-----+ <-- BFGS
 | Parameter |      value      |    tolerance    |    units   | OK? | <-- BFGS
 +-----------+-----------------+-----------------+------------+-----+ <-- BFGS
 |  dE/ion   |   0.000000E+000 |   2.000000E-005 |         eV | Yes | <-- BFGS
 |  |F|max   |   3.810405E-002 |   5.000000E-002 |       eV/A | Yes | <-- BFGS
 |  |dR|max  |   0.000000E+000 |   1.000000E-003 |          A | Yes | <-- BFGS
 |   Smax    |   7.006379E-002 |   1.000000E-001 |        GPa | Yes | <-- BFGS
 +-----------+-----------------+-----------------+------------+-----+ <-- BFGS
  
 BFGS: Geometry optimization completed successfully.

================================================================================
 BFGS: Final Configuration:
================================================================================
 
                           -------------------------------
                                      Unit Cell
                           -------------------------------
        Real Lattice(A)              Reciprocal Lattice(1/A)
   8.2599697   0.0000006   0.0749500        0.7605153  -0.0000000   0.0180337
   0.0000002   5.2455000   0.0000003       -0.0000001   1.1978239  -0.0000000
  -0.1732152   0.0000001   7.3048319       -0.0078031  -0.0000000   0.8599560
 
                       Lattice parameters(A)       Cell Angles
                    a =    8.260310          alpha =   89.999996
                    b =    5.245500          beta  =   90.838486
                    c =    7.306885          gamma =   89.999994
 
                Current cell volume =  316.569453 A**3
 
                           -------------------------------
                                     Cell Contents
                           -------------------------------
 
            xxxxxxxxxxxxxxxxxxxxxxxxxxxxxxxxxxxxxxxxxxxxxxxxxxxxxxxxxxxxxxxxx
            x  Element         Atom        Fractional coordinates of atoms  x
            x                 Number           u          v          w      x
            x---------------------------------------------------------------x
            x  O                 1         0.232182   0.000000   0.062072   x
            x  O                 2         0.732140   0.500000   0.062196   x
            x  O                 3         0.462814   0.236876   0.195778   x
            x  O                 4         0.962814   0.263116   0.195753   x
            x  O                 5         0.962814   0.736883   0.195753   x
            x  O                 6         0.462814   0.763124   0.195778   x
            x  O                 7         0.285218   0.000000   0.402304   x
            x  O                 8         0.785343   0.500000   0.402374   x
            x  O                 9         0.714781   0.000000   0.597695   x
            x  O                10         0.214657   0.500000   0.597627   x
            x  O                11         0.537186   0.236876   0.804222   x
            x  O                12         0.037186   0.263117   0.804247   x
            x  O                13         0.037186   0.736884   0.804247   x
            x  O                14         0.537186   0.763124   0.804222   x
            x  O                15         0.767818   0.000000   0.937928   x
            x  O                16         0.267860   0.500000   0.937805   x
            x  Na                1         0.000000   0.000000   0.500000   x
            x  Na                2         0.500000   0.500000   0.500000   x
            x  S                 1         0.355535   0.000000   0.217778   x
            x  S                 2         0.855572   0.500000   0.217810   x
            x  S                 3         0.644465   0.000000   0.782222   x
            x  S                 4         0.144428   0.500000   0.782190   x
            x  V                 1         0.000000   0.000000   0.000000   x
            x  V                 2         0.500000   0.500000   0.000000   x
            xxxxxxxxxxxxxxxxxxxxxxxxxxxxxxxxxxxxxxxxxxxxxxxxxxxxxxxxxxxxxxxxx
 
 
 BFGS: Final Enthalpy     = -1.47298530E+004 eV
 BFGS: Final <frequency>  unchanged from initial value
 BFGS: Final bulk modulus unchanged from initial value
  
  **********************************************************
  *** There were at least     1 warnings during this run ***
  *** => please check the whole of this file carefully!  ***
  **********************************************************
 
 ******************* Unconstrained Forces *******************
 *                                                          *
 *               Cartesian components (eV/A)                *
 * -------------------------------------------------------- *
 *                         x            y            z      *
 *                                                          *
 * O               1      0.00536     -0.00001     -0.03353 *
 * O               2      0.00571     -0.00000     -0.03656 *
 * O               3     -0.00374     -0.00833      0.00252 *
 * O               4     -0.00024      0.00725      0.00265 *
 * O               5     -0.00014     -0.00712      0.00263 *
 * O               6     -0.00375      0.00833      0.00252 *
 * O               7     -0.02579      0.00001      0.00579 *
 * O               8     -0.02771     -0.00000      0.00871 *
 * O               9      0.02578     -0.00001     -0.00561 *
 * O              10      0.02786     -0.00000     -0.00902 *
 * O              11      0.00371     -0.00826     -0.00249 *
 * O              12      0.00017      0.00715     -0.00262 *
 * O              13      0.00024     -0.00724     -0.00264 *
 * O              14      0.00373      0.00830     -0.00250 *
 * O              15     -0.00533      0.00001      0.03354 *
 * O              16     -0.00583     -0.00000      0.03640 *
 * Na              1     -0.00001      0.00000     -0.00000 *
 * Na              2      0.00000      0.00000     -0.00000 *
 * S               1     -0.03266     -0.00004      0.01176 *
 * S               2     -0.03602     -0.00012      0.01243 *
 * S               3      0.03264     -0.00001     -0.01198 *
 * S               4      0.03601      0.00007     -0.01198 *
 * V               1      0.00002      0.00002     -0.00002 *
 * V               2     -0.00002      0.00001     -0.00001 *
 *                                                          *
 ************************************************************
 
 ******************************** Constrained Forces ********************************
 *                                                                                  *
 *                           Cartesian components (eV/A)                            *
 * -------------------------------------------------------------------------------- *
 *                         x                    y                    z              *
 *                                                                                  *
 * O               1      0.00536             -0.00001             -0.03353         *
 * O               2      0.00571             -0.00000             -0.03656         *
 * O               3     -0.00374             -0.00833              0.00252         *
 * O               4     -0.00024              0.00725              0.00265         *
 * O               5     -0.00014             -0.00712              0.00263         *
 * O               6     -0.00375              0.00833              0.00252         *
 * O               7     -0.02579              0.00001              0.00579         *
 * O               8     -0.02771             -0.00000              0.00871         *
 * O               9      0.02578             -0.00001             -0.00561         *
 * O              10      0.02786             -0.00000             -0.00902         *
 * O              11      0.00371             -0.00826             -0.00249         *
 * O              12      0.00017              0.00715             -0.00262         *
 * O              13      0.00024             -0.00724             -0.00264         *
 * O              14      0.00373              0.00830             -0.00250         *
 * O              15     -0.00533              0.00001              0.03354         *
 * O              16     -0.00583             -0.00000              0.03640         *
 * Na              1     -0.00001              0.00000             -0.00000         *
 * Na              2      0.00000              0.00000             -0.00000         *
 * S               1     -0.03266             -0.00004              0.01176         *
 * S               2     -0.03602             -0.00012              0.01243         *
 * S               3      0.03264             -0.00001             -0.01198         *
 * S               4      0.03601              0.00007             -0.01198         *
 * V               1      0.00002              0.00002             -0.00002         *
 * V               2     -0.00002              0.00001             -0.00001         *
 *                                                                                  *
 ************************************************************************************
 
 ***************** Stress Tensor *****************
 *                                               *
 *          Cartesian components (GPa)           *
 * --------------------------------------------- *
 *             x             y             z     *
 *                                               *
 *  x      0.032395     -0.000119     -0.020423  *
 *  y     -0.000119     -0.061724     -0.000023  *
 *  z     -0.020423     -0.000023      0.070064  *
 *                                               *
 *  Pressure:   -0.0136                          *
 *                                               *
 *************************************************
 
 Pseudo atomic calculation performed for O 2s2 2p4
 
 Converged in 12 iterations to a total energy of -431.3437 eV
 
 
 Pseudo atomic calculation performed for Na 2s2 2p6 3s1
 
 Converged in 19 iterations to a total energy of -1293.0763 eV
 
 
 Pseudo atomic calculation performed for S 3s2 3p4
 
 Converged in 19 iterations to a total energy of -299.4518 eV
 
 
 Pseudo atomic calculation performed for V 3s2 3p6 3d3 4s2
 
 Converged in 33 iterations to a total energy of -1945.7424 eV
 
Charge spilling parameter for spin component 1 = 1.16%
 
     Atomic Populations (Mulliken)
     -----------------------------
Species          Ion     s      p      d      f     Total  Charge (e)
=====================================================================
  O               1     1.84   4.96   0.00   0.00   6.81    -0.81
  O               2     1.84   4.96   0.00   0.00   6.81    -0.81
  O               3     1.86   4.97   0.00   0.00   6.83    -0.83
  O               4     1.86   4.97   0.00   0.00   6.83    -0.83
  O               5     1.86   4.97   0.00   0.00   6.83    -0.83
  O               6     1.86   4.97   0.00   0.00   6.83    -0.83
  O               7     1.90   4.95   0.00   0.00   6.85    -0.85
  O               8     1.90   4.95   0.00   0.00   6.85    -0.85
  O               9     1.90   4.95   0.00   0.00   6.85    -0.85
  O              10     1.90   4.95   0.00   0.00   6.85    -0.85
  O              11     1.86   4.97   0.00   0.00   6.83    -0.83
  O              12     1.86   4.97   0.00   0.00   6.83    -0.83
  O              13     1.86   4.97   0.00   0.00   6.83    -0.83
  O              14     1.86   4.97   0.00   0.00   6.83    -0.83
  O              15     1.84   4.96   0.00   0.00   6.81    -0.81
  O              16     1.84   4.96   0.00   0.00   6.81    -0.81
  Na              1     2.06   5.94   0.00   0.00   8.00     1.00
  Na              2     2.06   5.94   0.00   0.00   8.00     1.00
  S               1     1.20   2.58   0.00   0.00   3.79     2.21
  S               2     1.20   2.58   0.00   0.00   3.79     2.21
  S               3     1.20   2.58   0.00   0.00   3.79     2.21
  S               4     1.20   2.58   0.00   0.00   3.79     2.21
  V               1     2.23   6.25   3.29   0.00  11.77     1.23
  V               2     2.23   6.25   3.29   0.00  11.77     1.23
=====================================================================
 
                 Bond                   Population      Length (A)
======================================================================
              O 10 -- S 4                    0.68        1.47584
              O 8  -- S 2                    0.68        1.47584
              O 7  -- S 1                    0.68        1.47589
              O 9  -- S 3                    0.68        1.47589
              O 2  -- S 2                    0.54        1.51609
              O 16 -- S 4                    0.54        1.51609
              O 1  -- S 1                    0.54        1.51615
              O 15 -- S 3                    0.54        1.51615
              O 5  -- S 2                    0.52        1.53586
              O 12 -- S 4                    0.52        1.53586
              O 4  -- S 2                    0.52        1.53586
              O 13 -- S 4                    0.52        1.53586
              O 11 -- S 3                    0.52        1.53596
              O 6  -- S 1                    0.52        1.53596
              O 14 -- S 3                    0.52        1.53596
              O 3  -- S 1                    0.52        1.53596
              O 16 -- V 2                    0.34        1.96418
              O 2  -- V 2                    0.34        1.96418
              O 15 -- V 1                    0.34        1.96433
              O 1  -- V 1                    0.34        1.96433
              O 13 -- V 1                    0.30        2.01444
              O 4  -- V 1                    0.30        2.01444
              O 12 -- V 1                    0.30        2.01445
              O 5  -- V 1                    0.30        2.01445
              O 14 -- V 2                    0.30        2.01460
              O 3  -- V 2                    0.30        2.01460
              O 11 -- V 2                    0.30        2.01460
              O 6  -- V 2                    0.30        2.01460
              O 10 -- O 12                  -0.15        2.45706
              O 10 -- O 13                  -0.15        2.45706
              O 5  -- O 8                   -0.15        2.45707
              O 4  -- O 8                   -0.15        2.45707
              O 9  -- O 11                  -0.15        2.45724
              O 9  -- O 14                  -0.15        2.45724
              O 6  -- O 7                   -0.15        2.45724
              O 3  -- O 7                   -0.15        2.45724
              O 2  -- O 5                   -0.14        2.46427
              O 2  -- O 4                   -0.14        2.46427
              O 12 -- O 16                  -0.14        2.46427
              O 13 -- O 16                  -0.14        2.46427
              O 11 -- O 15                  -0.14        2.46440
              O 1  -- O 6                   -0.14        2.46440
              O 14 -- O 15                  -0.14        2.46440
              O 1  -- O 3                   -0.14        2.46440
              O 7  -- Na 1                   0.10        2.47174
              O 9  -- Na 1                   0.10        2.47174
              O 8  -- Na 2                   0.10        2.47257
              O 10 -- Na 2                   0.10        2.47258
              O 11 -- O 14                  -0.17        2.48507
              O 3  -- O 6                   -0.17        2.48507
              O 12 -- O 13                  -0.17        2.48514
              O 4  -- O 5                   -0.17        2.48514
              O 10 -- O 16                  -0.13        2.51785
              O 2  -- O 8                   -0.13        2.51785
              O 1  -- O 7                   -0.13        2.51802
              O 9  -- O 15                  -0.13        2.51803
              O 11 -- Na 2                   0.02        2.63073
              O 6  -- Na 2                   0.02        2.63073
              O 14 -- Na 2                   0.02        2.63073
              O 3  -- Na 2                   0.02        2.63073
              O 13 -- Na 1                   0.02        2.63086
              O 4  -- Na 1                   0.02        2.63086
              O 5  -- Na 1                   0.02        2.63086
              O 12 -- Na 1                   0.02        2.63086
              O 1  -- O 16                  -0.04        2.79249
              O 2  -- O 15                  -0.04        2.79249
              O 2  -- O 6                   -0.02        2.80546
              O 2  -- O 3                   -0.02        2.80546
              O 11 -- O 16                  -0.02        2.80547
              O 14 -- O 16                  -0.02        2.80547
              O 13 -- O 15                  -0.02        2.80598
              O 1  -- O 4                   -0.02        2.80598
              O 12 -- O 15                  -0.02        2.80598
              O 1  -- O 5                   -0.02        2.80598
              O 4  -- O 15                  -0.02        2.82127
              O 1  -- O 13                  -0.02        2.82127
              O 1  -- O 12                  -0.02        2.82128
              O 5  -- O 15                  -0.02        2.82128
              O 3  -- O 16                  -0.02        2.82181
              O 6  -- O 16                  -0.02        2.82181
              O 2  -- O 14                  -0.02        2.82182
              O 2  -- O 11                  -0.02        2.82182
              O 5  -- O 13                  -0.02        2.93469
              O 4  -- O 12                  -0.02        2.93469
              O 6  -- O 14                  -0.02        2.93504
              O 3  -- O 11                  -0.02        2.93504
======================================================================
 

Writing analysis data to 71760.castep_bin

Writing model to 71760.check
 
 A BibTeX formatted list of references used in this run has been written to 
 71760.bib
 
Initialisation time =     14.80 s
Calculation time    =    538.36 s
Finalisation time   =      2.37 s
Total time          =    555.52 s
Peak Memory Use     = 2234096 kB
  
Overall parallel efficiency rating: Excellent (98%)                             
  
Data was distributed by:-
k-point (4-way); efficiency rating: Excellent (98%)                             
  
Parallel notes:
1) Calculation only took 553.2 s, so efficiency estimates may be inaccurate.    
