 +-------------------------------------------------+
 |                                                 |
 |      CCC   AA    SSS  TTTTT  EEEEE  PPPP        |
 |     C     A  A  S       T    E      P   P       |
 |     C     AAAA   SS     T    EEE    PPPP        |
 |     C     A  A     S    T    E      P           |
 |      CCC  A  A  SSS     T    EEEEE  P           |
 |                                                 |
 +-------------------------------------------------+
 |                                                 |
 | Welcome to Academic Release CASTEP version 17.21|          
 | Ab Initio Total Energy Program                  |
 |                                                 |
 | Authors:                                        |
 | M. Segall, M. Probert, C. Pickard, P. Hasnip,   |
 | S. Clark, K. Refson, J. R. Yates, M. Payne      |
 |                                                 |
 | Contributors:                                   |
 | P. Lindan, P. Haynes, J. White, V. Milman,      |
 | N. Govind, M. Gibson, P. Tulip, V. Cocula,      |
 | B. Montanari, D. Quigley, M. Glover,            |
 | L. Bernasconi, A. Perlov, M. Plummer,           |
 | E. McNellis, J. Meyer, J. Gale, D. Jochym       |
 | J. Aarons, B. Walker, R. Gillen, D. Jones       |
 | T. Green, I. J. Bush, C. J. Armstrong,          |
 | E. J. Higgins, E. L. Brown, M. S. McFly,        |
 | J. Wilkins, B-C. Shih, P. J. P. Byrne           |
 |                                                 |
 | Copyright (c) 2000 - 2017                       |
 |                                                 |
 |     Distributed under the terms of an           |
 |     Agreement between the United Kingdom        |
 |     Car-Parrinello (UKCP) Consortium,           |
 |     Daresbury Laboratory and Accelrys, Inc.     |
 |                                                 |
 | Please cite                                     |
 |                                                 |
 |     "First principles methods using CASTEP"     |
 |                                                 |
 |         Zeitschrift fuer Kristallographie       |
 |           220(5-6) pp. 567-570 (2005)           |
 |                                                 |
 | S. J. Clark, M. D. Segall, C. J. Pickard,       |
 | P. J. Hasnip, M. J. Probert, K. Refson,         |
 | M. C. Payne                                     |
 |                                                 |
 |       in all publications arising from          |
 |              your use of CASTEP                 |
 |                                                 |
 +-------------------------------------------------+
 
 
 Compiled for linux_x86_64_ifort17 on Fri, 08 Sep 2017 17:58:23 +0100
 from code version 
 056e886bd5a1+ Castep172_branch Mon, 15 May 2017 14:45:35 +0100
 Compiler: Intel Fortran 17.0.2.174; Optimisation: fast
 MATHLIBS: Intel MKL(2017.0.2) (LAPACK version 3.7.0)
 FFT Lib : mkl
 Fundamental constants values: CODATA 2010
 
 Run started: Thu, 27 Jun 2019 13:39:42 +0100
 
 Atomic calculation performed for O: 1s2 2s2 2p4
 
 Converged in 61 iterations to an ae energy of -2040.902 eV
 
   ============================================================                
   | Pseudopotential Report - Date of generation 27-06-2019   |                
   ------------------------------------------------------------                
   | Element: O Ionic charge:  6.00 Level of theory: PBE      |                
   | Atomic Solver: Koelling-Harmon                           |                
   |                                                          |                
   |               Reference Electronic Structure             |                
   |         Orbital         Occupation         Energy        |                
   |            2s              2.000           -0.881        |                
   |            2p              4.000           -0.332        |                
   |                                                          |                
   |                 Pseudopotential Definition               |                
   |        Beta     l      e      Rc     scheme   norm       |                
   |          1      0   -0.881   1.697     qc      0         |                
   |          2      0    0.250   1.697     qc      0         |                
   |          3      1   -0.332   1.697     qc      0         |                
   |          4      1    0.250   1.697     qc      0         |                
   |         loc     2    0.000   1.697     pn      0         |                
   |                                                          |                
   | Augmentation charge Rinner = 1.186                       |                
   | Partial core correction Rc = 1.186                       |                
   ------------------------------------------------------------                
   | "2|1.7|7|7|9|20:21(qc=5)"                                |                
   ------------------------------------------------------------                
   |      Author: Chris J. Pickard, Cambridge University      |                
   ============================================================                
 
 Atomic calculation performed for Na: 1s2 2s2 2p6 3s1
 
 Converged in 65 iterations to an ae energy of -4418.769 eV
 
   ============================================================                
   | Pseudopotential Report - Date of generation 27-06-2019   |                
   ------------------------------------------------------------                
   | Element: Na Ionic charge:  9.00 Level of theory: PBE     |                
   | Atomic Solver: Koelling-Harmon                           |                
   |                                                          |                
   |               Reference Electronic Structure             |                
   |         Orbital         Occupation         Energy        |                
   |            2s              2.000           -2.086        |                
   |            2p              6.000           -1.054        |                
   |            3s              1.000           -0.101        |                
   |                                                          |                
   |                 Pseudopotential Definition               |                
   |        Beta     l      e      Rc     scheme   norm       |                
   |          1      0   -2.086   1.796     qc      0         |                
   |          2      0   -0.101   1.796     qc      0         |                
   |          3      0    0.250   1.796     qc      0         |                
   |          4      1   -1.054   1.796     qc      0         |                
   |          5      1    0.250   1.796     qc      0         |                
   |         loc     2    0.000   1.796     pn      0         |                
   |                                                          |                
   | Augmentation charge Rinner = 1.265                       |                
   | Partial core correction Rc = 1.265                       |                
   ------------------------------------------------------------                
   | "2|1.8|8|9|10|20U:30:21(qc=5)"                           |                
   ------------------------------------------------------------                
   |      Author: Chris J. Pickard, Cambridge University      |                
   ============================================================                
 
 Atomic calculation performed for S: 1s2 2s2 2p6 3s2 3p4
 
 Converged in 57 iterations to an ae energy of -10858.586 eV
 
   ============================================================                
   | Pseudopotential Report - Date of generation 27-06-2019   |                
   ------------------------------------------------------------                
   | Element: S Ionic charge:  6.00 Level of theory: PBE      |                
   | Atomic Solver: Koelling-Harmon                           |                
   |                                                          |                
   |               Reference Electronic Structure             |                
   |         Orbital         Occupation         Energy        |                
   |            3s              2.000           -0.634        |                
   |            3p              4.000           -0.258        |                
   |                                                          |                
   |                 Pseudopotential Definition               |                
   |        Beta     l      e      Rc     scheme   norm       |                
   |          1      0   -0.634   1.796     qc      0         |                
   |          2      0    0.250   1.796     qc      0         |                
   |          3      1   -0.258   1.796     qc      0         |                
   |          4      1    0.250   1.796     qc      0         |                
   |          5      2    0.000   1.796     qc      0         |                
   |          6      2    0.250   1.796     qc      0         |                
   |         loc     3    0.000   1.796     pn      0         |                
   |                                                          |                
   | Augmentation charge Rinner = 1.255                       |                
   | Partial core correction Rc = 1.255                       |                
   ------------------------------------------------------------                
   | "3|1.8|5|6|7|30:31:32(qc=5)"                             |                
   ------------------------------------------------------------                
   |      Author: Chris J. Pickard, Cambridge University      |                
   ============================================================                
 
 Atomic calculation performed for V: 1s2 2s2 2p6 3s2 3p6 3d3 4s2
 
 Converged in 79 iterations to an ae energy of -25823.732 eV
 
   ============================================================                
   | Pseudopotential Report - Date of generation 27-06-2019   |                
   ------------------------------------------------------------                
   | Element: V Ionic charge: 13.00 Level of theory: PBE      |                
   | Atomic Solver: Koelling-Harmon                           |                
   |                                                          |                
   |               Reference Electronic Structure             |                
   |         Orbital         Occupation         Energy        |                
   |            3s              2.000           -2.581        |                
   |            3p              6.000           -1.618        |                
   |            3d              3.000           -0.190        |                
   |            4s              2.000           -0.173        |                
   |                                                          |                
   |                 Pseudopotential Definition               |                
   |        Beta     l      e      Rc     scheme   norm       |                
   |          1      0   -2.581   1.993     qc      0         |                
   |          2      0   -0.173   1.993     qc      0         |                
   |          3      0    0.250   1.993     qc      0         |                
   |          4      1   -1.618   1.993     qc      0         |                
   |          5      1    0.250   1.993     qc      0         |                
   |          6      2   -0.190   1.993     qc      0         |                
   |          7      2    0.250   1.993     qc      0         |                
   |         loc     3    0.000   1.993     pn      0         |                
   |                                                          |                
   | Augmentation charge Rinner = 0.998                       |                
   | Partial core correction Rc = 0.998                       |                
   ------------------------------------------------------------                
   | "3|2.0|2.0|1.0|7|7|9|30U:40:31:32(qc=5)"                 |                
   ------------------------------------------------------------                
   |      Author: Chris J. Pickard, Cambridge University      |                
   ============================================================                
 
 Pseudo atomic calculation performed for O 2s2 2p4
 
 Converged in 12 iterations to a total energy of -431.3437 eV
 
 
 Pseudo atomic calculation performed for Na 2s2 2p6 3s1
 
 Converged in 19 iterations to a total energy of -1293.0763 eV
 
 
 Pseudo atomic calculation performed for S 3s2 3p4
 
 Converged in 19 iterations to a total energy of -299.4518 eV
 
 
 Pseudo atomic calculation performed for V 3s2 3p6 3d3 4s2
 
 Converged in 33 iterations to a total energy of -1945.7424 eV
 
 Calculation parallelised over 3 processes.
 Data is distributed by k-point(3-way)

 ************************************ Title ************************************
 

 ***************************** General Parameters ******************************
  
 output verbosity                               : normal  (1)
 write checkpoint data to                       : 75220.check
 type of calculation                            : geometry optimization
 stress calculation                             : on
 density difference calculation                 : on
 electron localisation func (ELF) calculation   : off
 Hirshfeld analysis                             : off
 unlimited duration calculation
 timing information                             : on
 memory usage estimate                          : on
 write final potential to formatted file        : off
 write final density to formatted file          : on
 write BibTeX reference list                    : on
 write OTFG pseudopotential files               : on
 write electrostatic potential file             : on
 write bands file                               : on
 checkpoint writing                             : both castep_bin and check files
  
 output         length unit                     : A
 output           mass unit                     : amu
 output           time unit                     : ps
 output         charge unit                     : e
 output           spin unit                     : hbar/2
 output         energy unit                     : eV
 output          force unit                     : eV/A
 output       velocity unit                     : A/ps
 output       pressure unit                     : GPa
 output     inv_length unit                     : 1/A
 output      frequency unit                     : cm-1
 output force constant unit                     : eV/A**2
 output         volume unit                     : A**3
 output   IR intensity unit                     : (D/A)**2/amu
 output         dipole unit                     : D
 output         efield unit                     : eV/A/e
 output        entropy unit                     : J/mol/K
  
 wavefunctions paging                           : none
 random number generator seed                   : randomised (133942923)
 data distribution                              : optimal for this architecture
 optimization strategy                          : maximize speed(+++)

 *********************** Exchange-Correlation Parameters ***********************
  
 using functional                               : Perdew Burke Ernzerhof
 relativistic treatment                         : Koelling-Harmon
 DFT+D: Semi-empirical dispersion correction    : off

 ************************* Pseudopotential Parameters **************************
  
 pseudopotential representation                 : reciprocal space
 <beta|phi> representation                      : reciprocal space
 spin-orbit coupling                            : off

 **************************** Basis Set Parameters *****************************
  
 plane wave basis set cut-off                   :   800.0000   eV
 size of standard grid                          :     2.0000
 size of   fine   gmax                          :    28.9810   1/A
 finite basis set correction                    : none

 **************************** Electronic Parameters ****************************
  
 number of  electrons                           :  780.0    
 net charge of system                           :  0.000    
 treating system as non-spin-polarized
 number of bands                                :        468

 ********************* Electronic Minimization Parameters **********************
  
 Method: Treating system as metallic with density mixing treatment of electrons,
         and number of  SD  steps               :          1
         and number of  CG  steps               :          4
  
 total energy / atom convergence tol.           : 0.1000E-04   eV
 eigen-energy convergence tolerance             : 0.1000E-05   eV
 max force / atom convergence tol.              : ignored
 convergence tolerance window                   :          3   cycles
 max. number of SCF cycles                      :         30
 number of fixed-spin iterations                :         10
 smearing scheme                                : Gaussian
 smearing width                                 : 0.2000       eV
 Fermi energy convergence tolerance             : 0.2721E-13   eV
 periodic dipole correction                     : NONE

 ************************** Density Mixing Parameters **************************
  
 density-mixing scheme                          : Pulay
 max. length of mixing history                  :         20
 charge density mixing amplitude                : 0.4000    
 cut-off energy for mixing                      :  800.0       eV

 *********************** Population Analysis Parameters ************************
  
 Population analysis with cutoff                :  3.000       A

 ********************** Geometry Optimization Parameters ***********************
  
 optimization method                            : BFGS
 variable cell method                           : fixed basis quality
 max. number of steps                           :          2
 estimated bulk modulus                         :  500.0       GPa
 estimated <frequency>                          :  1668.       cm-1
 geom line minimiser                            : on
 with line minimiser tolerance                  :     0.4000
 total energy convergence tolerance             : 0.2000E-04   eV/atom
        max ionic |force| tolerance             : 0.5000E-01   eV/A
 max ionic |displacement| tolerance             : 0.1000E-02   A
   max |stress component| tolerance             : 0.1000       GPa
 convergence tolerance window                   :          2   steps
 backup results every                           :          5   steps
 write geom trajectory file                     : on

 *******************************************************************************
  
 
                           -------------------------------
                                      Unit Cell
                           -------------------------------
        Real Lattice(A)                      Reciprocal Lattice(1/A)
  13.4390000   0.0000000   0.0000000        0.4675337   0.2699307   0.0000000
  -6.7195000  11.6385154   0.0000000        0.0000000   0.5398614   0.0000000
   0.0000000   0.0000000   9.0910000        0.0000000   0.0000000   0.6911435
 
                       Lattice parameters(A)       Cell Angles
                    a =   13.439000          alpha =   90.000000
                    b =   13.439000          beta  =   90.000000
                    c =    9.091000          gamma =  120.000000
 
                       Current cell volume = 1421.923387       A**3
                                   density =    1.722040   AMU/A**3
                                           =    2.859515     g/cm^3
 
                           -------------------------------
                                     Cell Contents
                           -------------------------------
                         Total number of ions in cell =  114
                      Total number of species in cell =    4
                        Max number of any one species =   72
 
            xxxxxxxxxxxxxxxxxxxxxxxxxxxxxxxxxxxxxxxxxxxxxxxxxxxxxxxxxxxx
            x  Element    Atom        Fractional coordinates of atoms  x
            x            Number           u          v          w      x
            x----------------------------------------------------------x
            x  O            1         0.196733   0.563867   0.046767   x 
            x  O            2         0.436133   0.632867   0.046767   x 
            x  O            3         0.367133   0.803267   0.046767   x 
            x  O            4         0.417067   0.185333   0.053133   x 
            x  O            5         0.814667   0.231733   0.053133   x 
            x  O            6         0.768267   0.582933   0.053133   x 
            x  O            7         0.638267   0.046233   0.076033   x 
            x  O            8         0.407967   0.361733   0.076033   x 
            x  O            9         0.953767   0.592033   0.076033   x 
            x  O           10         0.007000   0.129100   0.118200   x 
            x  O           11         0.870900   0.877900   0.118200   x 
            x  O           12         0.122100   0.993000   0.118200   x 
            x  O           13         0.659667   0.204233   0.215133   x 
            x  O           14         0.544567   0.340333   0.215133   x 
            x  O           15         0.795767   0.455433   0.215133   x 
            x  O           16         0.028400   0.287100   0.257300   x 
            x  O           17         0.712900   0.741300   0.257300   x 
            x  O           18         0.258700   0.971600   0.257300   x 
            x  O           19         0.852000   0.101600   0.280200   x 
            x  O           20         0.249600   0.148000   0.280200   x 
            x  O           21         0.898400   0.750400   0.280200   x 
            x  O           22         0.299533   0.530067   0.286567   x 
            x  O           23         0.230533   0.700467   0.286567   x 
            x  O           24         0.469933   0.769467   0.286567   x 
            x  O           25         0.033800   0.136600   0.380100   x 
            x  O           26         0.863400   0.897200   0.380100   x 
            x  O           27         0.102800   0.966200   0.380100   x 
            x  O           28         0.083733   0.518667   0.386467   x 
            x  O           29         0.481333   0.565067   0.386467   x 
            x  O           30         0.434933   0.916267   0.386467   x 
            x  O           31         0.304933   0.379567   0.409367   x 
            x  O           32         0.074633   0.695067   0.409367   x 
            x  O           33         0.620433   0.925367   0.409367   x 
            x  O           34         0.537567   0.211233   0.451533   x 
            x  O           35         0.788767   0.326333   0.451533   x 
            x  O           36         0.673667   0.462433   0.451533   x 
            x  O           37         0.326333   0.537567   0.548467   x 
            x  O           38         0.211233   0.673667   0.548467   x 
            x  O           39         0.462433   0.788767   0.548467   x 
            x  O           40         0.379567   0.074633   0.590633   x 
            x  O           41         0.925367   0.304933   0.590633   x 
            x  O           42         0.695067   0.620433   0.590633   x 
            x  O           43         0.565067   0.083733   0.613533   x 
            x  O           44         0.518667   0.434933   0.613533   x 
            x  O           45         0.916267   0.481333   0.613533   x 
            x  O           46         0.897200   0.033800   0.619900   x 
            x  O           47         0.136600   0.102800   0.619900   x 
            x  O           48         0.966200   0.863400   0.619900   x 
            x  O           49         0.530067   0.230533   0.713433   x 
            x  O           50         0.769467   0.299533   0.713433   x 
            x  O           51         0.700467   0.469933   0.713433   x 
            x  O           52         0.101600   0.249600   0.719800   x 
            x  O           53         0.750400   0.852000   0.719800   x 
            x  O           54         0.148000   0.898400   0.719800   x 
            x  O           55         0.741300   0.028400   0.742700   x 
            x  O           56         0.287100   0.258700   0.742700   x 
            x  O           57         0.971600   0.712900   0.742700   x 
            x  O           58         0.204233   0.544567   0.784867   x 
            x  O           59         0.455433   0.659667   0.784867   x 
            x  O           60         0.340333   0.795767   0.784867   x 
            x  O           61         0.877900   0.007000   0.881800   x 
            x  O           62         0.129100   0.122100   0.881800   x 
            x  O           63         0.993000   0.870900   0.881800   x 
            x  O           64         0.046233   0.407967   0.923967   x 
            x  O           65         0.592033   0.638267   0.923967   x 
            x  O           66         0.361733   0.953767   0.923967   x 
            x  O           67         0.231733   0.417067   0.946867   x 
            x  O           68         0.185333   0.768267   0.946867   x 
            x  O           69         0.582933   0.814667   0.946867   x 
            x  O           70         0.632867   0.196733   0.953233   x 
            x  O           71         0.563867   0.367133   0.953233   x 
            x  O           72         0.803267   0.436133   0.953233   x 
            x  Na           1         0.225433   0.303067   0.158067   x 
            x  Na           2         0.077633   0.774567   0.158067   x 
            x  Na           3         0.696933   0.922367   0.158067   x 
            x  Na           4         0.441233   0.030267   0.175267   x 
            x  Na           5         0.969733   0.410967   0.175267   x 
            x  Na           6         0.589033   0.558767   0.175267   x 
            x  Na           7         0.744300   0.107900   0.491400   x 
            x  Na           8         0.363600   0.255700   0.491400   x 
            x  Na           9         0.892100   0.636400   0.491400   x 
            x  Na          10         0.107900   0.363600   0.508600   x 
            x  Na          11         0.636400   0.744300   0.508600   x 
            x  Na          12         0.255700   0.892100   0.508600   x 
            x  Na          13         0.410967   0.441233   0.824733   x 
            x  Na          14         0.030267   0.589033   0.824733   x 
            x  Na          15         0.558767   0.969733   0.824733   x 
            x  Na          16         0.303067   0.077633   0.841933   x 
            x  Na          17         0.922367   0.225433   0.841933   x 
            x  Na          18         0.774567   0.696933   0.841933   x 
            x  S            1         0.691767   0.171033   0.073433   x 
            x  S            2         0.479267   0.308233   0.073433   x 
            x  S            3         0.828967   0.520733   0.073433   x 
            x  S            4         0.187400   0.025100   0.259900   x 
            x  S            5         0.974900   0.162300   0.259900   x 
            x  S            6         0.837700   0.812600   0.259900   x 
            x  S            7         0.358433   0.504367   0.406767   x 
            x  S            8         0.145933   0.641567   0.406767   x 
            x  S            9         0.495633   0.854067   0.406767   x 
            x  S           10         0.504367   0.145933   0.593233   x 
            x  S           11         0.854067   0.358433   0.593233   x 
            x  S           12         0.641567   0.495633   0.593233   x 
            x  S           13         0.162300   0.187400   0.740100   x 
            x  S           14         0.025100   0.837700   0.740100   x 
            x  S           15         0.812600   0.974900   0.740100   x 
            x  S           16         0.171033   0.479267   0.926567   x 
            x  S           17         0.520733   0.691767   0.926567   x 
            x  S           18         0.308233   0.828967   0.926567   x 
            x  V            1         0.000000   0.000000   0.000000   x 
            x  V            2         0.333333   0.666667   0.166667   x 
            x  V            3         0.666667   0.333333   0.333333   x 
            x  V            4         0.000000   0.000000   0.500000   x 
            x  V            5         0.333333   0.666667   0.666667   x 
            x  V            6         0.666667   0.333333   0.833333   x 
            xxxxxxxxxxxxxxxxxxxxxxxxxxxxxxxxxxxxxxxxxxxxxxxxxxxxxxxxxxxx
 
 
                         No user defined ionic velocities
 
                           -------------------------------
                                   Details of Species
                           -------------------------------
 
                               Mass of species in AMU
                                    O   15.9994000
                                    Na   22.9897700
                                    S   32.0660000
                                    V   50.9415000
 
                          Electric Quadrupole Moment (Barn)
                                    O   -0.0255800 Isotope 17
                                    Na    0.1040000 Isotope 23
                                    S   -0.0678000 Isotope 33
                                    V   -0.0520000 Isotope 51
 
                          Files used for pseudopotentials:
                                    O 2|1.7|7|7|9|20:21(qc=5)
                                    Na 2|1.8|8|9|10|20U:30:21(qc=5)
                                    S 3|1.8|5|6|7|30:31:32(qc=5)
                                    V 3|2.0|2.0|1.0|7|7|9|30U:40:31:32(qc=5)
 
                           -------------------------------
                              k-Points For BZ Sampling
                           -------------------------------
                       MP grid size for SCF calculation is  2  2  3
                            with an offset of   0.000  0.000  0.000
                       Number of kpoints used =             6
 
                           -------------------------------
                               Symmetry and Constraints
                           -------------------------------
 
                      Cell is a supercell containing 3 primitive cells
                      Maximum deviation from symmetry =  0.00000         ANG
 
                      Number of symmetry operations   =           1
                      Number of ionic constraints     =           3
                      Point group of crystal =     1: C1, 1, 1
                      Space group of crystal =   148: R-3, -R 3
 
             Set iprint > 1 for details on symmetry rotations/translations
 
                         Centre of mass is constrained
             Set iprint > 1 for details of linear ionic constraints
 
                         Number of cell constraints= 0
                         Cell constraints are:  1 2 3 4 5 6
 
                         External pressure/stress (GPa)
                          0.00000   0.00000   0.00000
                                    0.00000   0.00000
                                              0.00000
  
+---------------- MEMORY AND SCRATCH DISK ESTIMATES PER PROCESS --------------+
|                                                     Memory          Disk    |
| Baseline code, static data and system overhead      166.0 MB         0.0 MB |
| BLAS internal memory storage                          0.0 MB         0.0 MB |
| Model and support data                             7536.5 MB         0.0 MB |
| Electronic energy minimisation requirements        3619.3 MB         0.0 MB |
| Force calculation requirements                      203.8 MB         0.0 MB |
| Stress calculation requirements                     225.3 MB         0.0 MB |
|                                               ----------------------------- |
| Approx. total storage required per process        11321.8 MB         0.0 MB |
|                                                                             |
| Requirements will fluctuate during execution and may exceed these estimates |
+-----------------------------------------------------------------------------+
Calculating total energy with cut-off of  800.000 eV.
------------------------------------------------------------------------ <-- SCF
SCF loop      Energy           Fermi           Energy gain       Timer   <-- SCF
                               energy          per atom          (sec)   <-- SCF
------------------------------------------------------------------------ <-- SCF
Initial  -5.31290895E+004  0.00000000E+000                        68.62  <-- SCF
      1  -6.97308794E+004  3.74192648E+000   1.45629735E+002     723.03  <-- SCF
      2  -7.21278293E+004  3.41790019E+000   2.10258764E+001    1152.21  <-- SCF
      3  -7.21853531E+004  3.49766580E+000   5.04594683E-001    1619.16  <-- SCF
      4  -7.20903818E+004  2.25356923E+000  -8.33081361E-001    2222.02  <-- SCF
      5  -7.21371230E+004  3.58163413E-001   4.10010487E-001    2844.74  <-- SCF
      6  -7.20963465E+004  3.11415756E+000  -3.57689007E-001    3437.20  <-- SCF
      7  -7.20976200E+004  3.35217047E+000   1.11713941E-002    4052.35  <-- SCF
      8  -7.20907193E+004  3.10952517E+000  -6.05322086E-002    4625.03  <-- SCF
      9  -7.20885601E+004  3.10195913E+000  -1.89404344E-002    5211.05  <-- SCF
     10  -7.20911376E+004  2.93785840E+000   2.26096221E-002    5783.81  <-- SCF
     11  -7.20888711E+004  3.45144428E+000  -1.98814382E-002    6359.23  <-- SCF
     12  -7.20882064E+004  3.36399128E+000  -5.83090117E-003    6925.35  <-- SCF
     13  -7.20886781E+004  3.31557606E+000   4.13728117E-003    7499.14  <-- SCF
     14  -7.20859188E+004  3.39999374E+000  -2.42035368E-002    8063.77  <-- SCF
     15  -7.20869844E+004  3.39863294E+000   9.34654903E-003    8624.01  <-- SCF
     16  -7.20872616E+004  3.40701842E+000   2.43162571E-003    9183.57  <-- SCF
     17  -7.20871832E+004  3.40739449E+000  -6.87393902E-004    9718.50  <-- SCF
     18  -7.20871917E+004  3.41672189E+000   7.45181094E-005   10264.86  <-- SCF
     19  -7.20872422E+004  3.41366535E+000   4.42633744E-004   10811.48  <-- SCF
     20  -7.20872494E+004  3.41546641E+000   6.39646007E-005   11324.37  <-- SCF
     21  -7.20872592E+004  3.41943733E+000   8.55562924E-005   11790.20  <-- SCF
     22  -7.20872611E+004  3.42106159E+000   1.63347738E-005   12224.95  <-- SCF
     23  -7.20872578E+004  3.42334620E+000  -2.86781383E-005   12651.88  <-- SCF
     24  -7.20872603E+004  3.42473521E+000   2.21119510E-005   13063.98  <-- SCF
     25  -7.20872608E+004  3.42555121E+000   4.42122389E-006   13459.20  <-- SCF
     26  -7.20872608E+004  3.42582906E+000  -4.34040047E-007   13855.19  <-- SCF
------------------------------------------------------------------------ <-- SCF
 
Final energy, E             =  -72085.95437181     eV
Final free energy (E-TS)    =  -72087.26076558     eV
(energies not corrected for finite basis set)
 
NB est. 0K energy (E-0.5TS)      =  -72086.60756870     eV
 

Writing analysis data to 75220.castep_bin

Writing model to 75220.check

WARNING - doing cell minimisation without finite basis correction:
        => now searching for a stationary and not minimum energy
 
+---------------- MEMORY AND SCRATCH DISK ESTIMATES PER PROCESS --------------+
|                                                     Memory          Disk    |
| Model and support data                             7483.1 MB         0.0 MB |
| Electronic energy minimisation requirements        3619.3 MB         0.0 MB |
| Geometry minimisation requirements                 4702.4 MB         0.0 MB |
|                                               ----------------------------- |
| Approx. total storage required per process        15804.8 MB         0.0 MB |
|                                                                             |
| Requirements will fluctuate during execution and may exceed these estimates |
+-----------------------------------------------------------------------------+
 
 
 ******************************** Constrained Forces ********************************
 *                                                                                  *
 *                           Cartesian components (eV/A)                            *
 * -------------------------------------------------------------------------------- *
 *                         x                    y                    z              *
 *                                                                                  *
 * O               1     -0.19671              1.60074              1.83237         *
 * O               2     -1.28632             -0.97041              1.83025         *
 * O               3      1.48309             -0.62932              1.83112         *
 * O               4     -0.04133             -2.79420             -0.41704         *
 * O               5      2.44008              1.36127             -0.41707         *
 * O               6     -2.39897              1.43260             -0.41724         *
 * O               7      0.21837             -2.55336             -0.04985         *
 * O               8     -2.32060              1.08730             -0.05043         *
 * O               9      2.10152              1.46525             -0.05018         *
 * O              10      0.97731             -0.57122             -1.76290         *
 * O              11      0.00550              1.13329             -1.76371         *
 * O              12     -0.98347             -0.56148             -1.76309         *
 * O              13     -0.97736              0.57089              1.76300         *
 * O              14      0.98315              0.56146              1.76290         *
 * O              15     -0.00495             -1.13294              1.76360         *
 * O              16     -0.21843              2.55343              0.04972         *
 * O              17     -2.10153             -1.46519              0.05010         *
 * O              18      2.32065             -1.08729              0.05045         *
 * O              19     -2.44054             -1.36120              0.41709         *
 * O              20      0.04166              2.79448              0.41710         *
 * O              21      2.39891             -1.43283              0.41721         *
 * O              22     -1.48294              0.62934             -1.83099         *
 * O              23      1.28628              0.97031             -1.83010         *
 * O              24      0.19663             -1.60062             -1.83228         *
 * O              25      1.48586             -0.63078              1.83365         *
 * O              26     -0.19672              1.60416              1.83514         *
 * O              27     -1.28934             -0.97225              1.83320         *
 * O              28     -0.04152             -2.79531             -0.41705         *
 * O              29      2.44115              1.36167             -0.41709         *
 * O              30     -2.39976              1.43325             -0.41725         *
 * O              31      0.21840             -2.55206             -0.04980         *
 * O              32     -2.31958              1.08664             -0.05051         *
 * O              33      2.10047              1.46455             -0.05015         *
 * O              34      0.00528              1.13295             -1.76372         *
 * O              35     -0.98329             -0.56119             -1.76301         *
 * O              36      0.97720             -0.57123             -1.76306         *
 * O              37     -0.97655              0.57102              1.76275         *
 * O              38      0.98276              0.56068              1.76269         *
 * O              39     -0.00548             -1.13231              1.76351         *
 * O              40     -2.10045             -1.46514              0.05017         *
 * O              41      2.32005             -1.08631              0.05052         *
 * O              42     -0.21891              2.55231              0.04981         *
 * O              43      2.39910             -1.43311              0.41723         *
 * O              44     -2.44070             -1.36118              0.41706         *
 * O              45      0.04173              2.79470              0.41702         *
 * O              46      1.28960              0.97209             -1.83340         *
 * O              47      0.19646             -1.60429             -1.83534         *
 * O              48     -1.48582              0.63108             -1.83384         *
 * O              49     -0.19694              1.60473              1.83573         *
 * O              50     -1.28969             -0.97262              1.83361         *
 * O              51      1.48663             -0.63115              1.83448         *
 * O              52     -2.39898              1.43311             -0.41722         *
 * O              53     -0.04186             -2.79470             -0.41711         *
 * O              54      2.44084              1.36113             -0.41709         *
 * O              55     -2.32025              1.08663             -0.05053         *
 * O              56      2.10078              1.46517             -0.05016         *
 * O              57      0.21881             -2.55276             -0.04977         *
 * O              58      0.00547              1.13236             -1.76358         *
 * O              59     -0.98285             -0.56070             -1.76276         *
 * O              60      0.97659             -0.57099             -1.76286         *
 * O              61      0.98371              0.56123              1.76327         *
 * O              62     -0.00581             -1.13336              1.76390         *
 * O              63     -0.97720              0.57154              1.76307         *
 * O              64     -2.10080             -1.46462              0.05023         *
 * O              65      2.31973             -1.08699              0.05050         *
 * O              66     -0.21822              2.55245              0.04990         *
 * O              67      2.39970             -1.43301              0.41726         *
 * O              68     -2.44082             -1.36171              0.41710         *
 * O              69      0.04132              2.79503              0.41708         *
 * O              70     -1.48681              0.63084             -1.83442         *
 * O              71      1.28948              0.97287             -1.83356         *
 * O              72      0.19728             -1.60472             -1.83563         *
 * Na              1     -0.01716             -0.01594              0.01753         *
 * Na              2     -0.00506              0.02268              0.01743         *
 * Na              3      0.02209             -0.00685              0.01729         *
 * Na              4      0.01707              0.01583             -0.01753         *
 * Na              5     -0.02218              0.00670             -0.01730         *
 * Na              6      0.00522             -0.02290             -0.01749         *
 * Na              7     -0.00485              0.02291              0.01762         *
 * Na              8      0.02200             -0.00700              0.01743         *
 * Na              9     -0.01716             -0.01543              0.01773         *
 * Na             10      0.01698              0.01522             -0.01759         *
 * Na             11     -0.02169              0.00693             -0.01732         *
 * Na             12      0.00476             -0.02261             -0.01750         *
 * Na             13     -0.00492              0.02270              0.01746         *
 * Na             14      0.02182             -0.00685              0.01730         *
 * Na             15     -0.01706             -0.01546              0.01751         *
 * Na             16     -0.02201              0.00710             -0.01742         *
 * Na             17      0.00480             -0.02277             -0.01754         *
 * Na             18      0.01734              0.01576             -0.01767         *
 * S               1     -0.23316              0.08323              0.35781         *
 * S               2      0.18917              0.16073              0.35722         *
 * S               3      0.04339             -0.24156              0.35815         *
 * S               4     -0.18868             -0.16018             -0.35842         *
 * S               5      0.23297             -0.08303             -0.35874         *
 * S               6     -0.04341              0.24098             -0.35914         *
 * S               7     -0.23163              0.08078              0.36086         *
 * S               8      0.18621              0.16052              0.36023         *
 * S               9      0.04476             -0.23894              0.36124         *
 * S              10     -0.04401              0.24159             -0.35820         *
 * S              11     -0.18891             -0.16126             -0.35721         *
 * S              12      0.23361             -0.08275             -0.35784         *
 * S              13      0.04390             -0.24078              0.35915         *
 * S              14     -0.23307              0.08249              0.35877         *
 * S              15      0.18824              0.16051              0.35844         *
 * S              16     -0.04464              0.23869             -0.36121         *
 * S              17     -0.18602             -0.16033             -0.36027         *
 * S              18      0.23128             -0.08070             -0.36086         *
 * V               1     -0.00002              0.00000             -0.00017         *
 * V               2     -0.00430              0.00171              0.00003         *
 * V               3      0.00537             -0.00198              0.00007         *
 * V               4     -0.00001              0.00000              0.00019         *
 * V               5     -0.00536              0.00197              0.00011         *
 * V               6      0.00429             -0.00173             -0.00020         *
 *                                                                                  *
 ************************************************************************************
 
 ***************** Stress Tensor *****************
 *                                               *
 *          Cartesian components (GPa)           *
 * --------------------------------------------- *
 *             x             y             z     *
 *                                               *
 *  x    -11.804114      0.002131      0.001228  *
 *  y      0.002131    -11.803735     -0.000425  *
 *  z      0.001228     -0.000425    -10.306292  *
 *                                               *
 *  Pressure:   11.3047                          *
 *                                               *
 *************************************************
 BFGS: finished iteration     0 with enthalpy= -7.20872608E+004 eV
  
 +-----------+-----------------+-----------------+------------+-----+ <-- BFGS
 | Parameter |      value      |    tolerance    |    units   | OK? | <-- BFGS
 +-----------+-----------------+-----------------+------------+-----+ <-- BFGS
 |  dE/ion   |   0.000000E+000 |   2.000000E-005 |         eV | No  | <-- BFGS
 |  |F|max   |   2.826558E+000 |   5.000000E-002 |       eV/A | No  | <-- BFGS
 |  |dR|max  |   0.000000E+000 |   1.000000E-003 |          A | No  | <-- BFGS
 |   Smax    |   1.180411E+001 |   1.000000E-001 |        GPa | No  | <-- BFGS
 +-----------+-----------------+-----------------+------------+-----+ <-- BFGS
  

================================================================================
 Starting BFGS iteration          1 ...
================================================================================
  
 +------------+-------------+-------------+-----------------+ <-- min BFGS
 |    Step    |   lambda    |   F.delta'  |    enthalpy     | <-- min BFGS
 +------------+-------------+-------------+-----------------+ <-- min BFGS
 |  previous  |    0.000000 |   10.030343 |   -72087.260766 | <-- min BFGS
 +------------+-------------+-------------+-----------------+ <-- min BFGS
  

--------------------------------------------------------------------------------
 BFGS: starting iteration         1 with trial guess (lambda=  1.000000)
--------------------------------------------------------------------------------
 
+---------------- MEMORY AND SCRATCH DISK ESTIMATES PER PROCESS --------------+
|                                                     Memory          Disk    |
| Model and support data                             7537.1 MB         0.0 MB |
| Electronic energy minimisation requirements        3697.3 MB         0.0 MB |
| Geometry minimisation requirements                 4804.1 MB         0.0 MB |
|                                               ----------------------------- |
| Approx. total storage required per process        16038.6 MB         0.0 MB |
|                                                                             |
| Requirements will fluctuate during execution and may exceed these estimates |
+-----------------------------------------------------------------------------+
 
 
                           -------------------------------
                                      Unit Cell
                           -------------------------------
        Real Lattice(A)              Reciprocal Lattice(1/A)
  13.5447570  -0.0000191  -0.0000110        0.4638836   0.2678238   0.0000003
  -6.7723950  11.7301103   0.0000088        0.0000008   0.5356463  -0.0000002
  -0.0000074   0.0000026   9.1534630        0.0000006  -0.0000002   0.6864271
 
                       Lattice parameters(A)       Cell Angles
                    a =   13.544757          alpha =   89.999926
                    b =   13.544771          beta  =   90.000093
                    c =    9.153463          gamma =  120.000127
 
                Current cell volume = 1454.314682 A**3
 
                           -------------------------------
                                     Cell Contents
                           -------------------------------
 
            xxxxxxxxxxxxxxxxxxxxxxxxxxxxxxxxxxxxxxxxxxxxxxxxxxxxxxxxxxxxxxxxx
            x  Element         Atom        Fractional coordinates of atoms  x
            x                 Number           u          v          w      x
            x---------------------------------------------------------------x
            x  O                 1         0.196979   0.564493   0.047684   x
            x  O                 2         0.435508   0.632488   0.047683   x
            x  O                 3         0.367512   0.803021   0.047684   x
            x  O                 4         0.416507   0.184240   0.052924   x
            x  O                 5         0.815760   0.232265   0.052924   x
            x  O                 6         0.767735   0.583493   0.052924   x
            x  O                 7         0.637842   0.045234   0.076008   x
            x  O                 8         0.407394   0.362158   0.076008   x
            x  O                 9         0.954765   0.592606   0.076008   x
            x  O                10         0.007219   0.128877   0.117317   x
            x  O                11         0.871123   0.878343   0.117317   x
            x  O                12         0.121657   0.992780   0.117317   x
            x  O                13         0.659448   0.204456   0.216016   x
            x  O                14         0.545010   0.340553   0.216016   x
            x  O                15         0.795544   0.454990   0.216016   x
            x  O                16         0.028825   0.288099   0.257325   x
            x  O                17         0.711902   0.740727   0.257325   x
            x  O                18         0.259273   0.971175   0.257325   x
            x  O                19         0.850907   0.101068   0.280409   x
            x  O                20         0.250161   0.149093   0.280409   x
            x  O                21         0.898932   0.749840   0.280409   x
            x  O                22         0.299154   0.530313   0.285650   x
            x  O                23         0.231158   0.700846   0.285651   x
            x  O                24         0.469687   0.768841   0.285650   x
            x  O                25         0.034180   0.136353   0.381018   x
            x  O                26         0.863647   0.897827   0.381019   x
            x  O                27         0.102173   0.965820   0.381018   x
            x  O                28         0.083172   0.517574   0.386258   x
            x  O                29         0.482426   0.565600   0.386258   x
            x  O                30         0.434401   0.916827   0.386258   x
            x  O                31         0.304508   0.378569   0.409342   x
            x  O                32         0.074060   0.695492   0.409342   x
            x  O                33         0.621431   0.925940   0.409342   x
            x  O                34         0.537790   0.211676   0.450650   x
            x  O                35         0.788324   0.326114   0.450650   x
            x  O                36         0.673886   0.462210   0.450650   x
            x  O                37         0.326114   0.537790   0.549350   x
            x  O                38         0.211675   0.673886   0.549349   x
            x  O                39         0.462210   0.788324   0.549350   x
            x  O                40         0.378569   0.074060   0.590658   x
            x  O                41         0.925940   0.304508   0.590658   x
            x  O                42         0.695492   0.621431   0.590658   x
            x  O                43         0.565599   0.083173   0.613742   x
            x  O                44         0.517574   0.434401   0.613742   x
            x  O                45         0.916828   0.482426   0.613742   x
            x  O                46         0.897827   0.034180   0.618982   x
            x  O                47         0.136353   0.102173   0.618981   x
            x  O                48         0.965820   0.863647   0.618982   x
            x  O                49         0.530314   0.231161   0.714352   x
            x  O                50         0.768840   0.299153   0.714351   x
            x  O                51         0.700847   0.469686   0.714351   x
            x  O                52         0.101068   0.250160   0.719591   x
            x  O                53         0.749839   0.850907   0.719591   x
            x  O                54         0.149093   0.898932   0.719591   x
            x  O                55         0.740727   0.028825   0.742675   x
            x  O                56         0.288098   0.259273   0.742675   x
            x  O                57         0.971175   0.711902   0.742675   x
            x  O                58         0.204456   0.545010   0.783984   x
            x  O                59         0.454991   0.659448   0.783984   x
            x  O                60         0.340552   0.795544   0.783984   x
            x  O                61         0.878343   0.007219   0.882683   x
            x  O                62         0.128876   0.121657   0.882683   x
            x  O                63         0.992781   0.871124   0.882683   x
            x  O                64         0.045235   0.407394   0.923992   x
            x  O                65         0.592606   0.637842   0.923992   x
            x  O                66         0.362158   0.954765   0.923992   x
            x  O                67         0.232266   0.416507   0.947076   x
            x  O                68         0.184240   0.767734   0.947076   x
            x  O                69         0.583494   0.815760   0.947076   x
            x  O                70         0.632487   0.196980   0.952315   x
            x  O                71         0.564494   0.367513   0.952315   x
            x  O                72         0.803020   0.435505   0.952314   x
            x  Na                1         0.225424   0.303061   0.158076   x
            x  Na                2         0.077636   0.774576   0.158076   x
            x  Na                3         0.696939   0.922364   0.158076   x
            x  Na                4         0.441242   0.030273   0.175258   x
            x  Na                5         0.969727   0.410970   0.175258   x
            x  Na                6         0.589030   0.558758   0.175258   x
            x  Na                7         0.744303   0.107909   0.491409   x
            x  Na                8         0.363606   0.255697   0.491409   x
            x  Na                9         0.892091   0.636394   0.491409   x
            x  Na               10         0.107909   0.363606   0.508591   x
            x  Na               11         0.636394   0.744303   0.508591   x
            x  Na               12         0.255697   0.892091   0.508591   x
            x  Na               13         0.410970   0.441242   0.824742   x
            x  Na               14         0.030273   0.589030   0.824742   x
            x  Na               15         0.558758   0.969727   0.824742   x
            x  Na               16         0.303061   0.077636   0.841924   x
            x  Na               17         0.922364   0.225424   0.841924   x
            x  Na               18         0.774576   0.696939   0.841924   x
            x  S                 1         0.691704   0.171066   0.073612   x
            x  S                 2         0.479362   0.308296   0.073612   x
            x  S                 3         0.828934   0.520639   0.073612   x
            x  S                 4         0.187305   0.025037   0.259721   x
            x  S                 5         0.974963   0.162268   0.259720   x
            x  S                 6         0.837732   0.812694   0.259720   x
            x  S                 7         0.358370   0.504399   0.406948   x
            x  S                 8         0.146027   0.641630   0.406947   x
            x  S                 9         0.495601   0.853974   0.406948   x
            x  S                10         0.504399   0.146027   0.593054   x
            x  S                11         0.853971   0.358370   0.593054   x
            x  S                12         0.641630   0.495601   0.593054   x
            x  S                13         0.162268   0.187306   0.740280   x
            x  S                14         0.025037   0.837732   0.740280   x
            x  S                15         0.812695   0.974963   0.740279   x
            x  S                16         0.171065   0.479360   0.926386   x
            x  S                17         0.520639   0.691704   0.926387   x
            x  S                18         0.308296   0.828935   0.926386   x
            x  V                 1        -0.000000   0.000000  -0.000000   x
            x  V                 2         0.333332   0.666668   0.166667   x
            x  V                 3         0.666668   0.333332   0.333333   x
            x  V                 4        -0.000000   0.000000   0.500000   x
            x  V                 5         0.333332   0.666668   0.666667   x
            x  V                 6         0.666668   0.333332   0.833333   x
            xxxxxxxxxxxxxxxxxxxxxxxxxxxxxxxxxxxxxxxxxxxxxxxxxxxxxxxxxxxxxxxxx
 
 
------------------------------------------------------------------------ <-- SCF
SCF loop      Energy           Fermi           Energy gain       Timer   <-- SCF
                               energy          per atom          (sec)   <-- SCF
------------------------------------------------------------------------ <-- SCF
Initial  -7.20799886E+004  0.00000000E+000                     16035.98  <-- SCF
      1  -7.21009265E+004  1.97962082E+000   1.83665653E-001   16628.91  <-- SCF
      2  -7.21010927E+004  1.97890046E+000   1.45807416E-003   17296.43  <-- SCF
      3  -7.21304090E+004  1.28256739E+000   2.57160660E-001   17917.13  <-- SCF
      4  -7.21167006E+004  2.19379532E+000  -1.20249624E-001   18556.93  <-- SCF
      5  -7.20922808E+004  3.22481201E+000  -2.14208247E-001   19180.11  <-- SCF
      6  -7.20957768E+004  3.20569132E+000   3.06667790E-002   19819.63  <-- SCF
      7  -7.20947715E+004  2.94815059E+000  -8.81850454E-003   20435.31  <-- SCF
      8  -7.20926884E+004  2.87553738E+000  -1.82726031E-002   21036.80  <-- SCF
      9  -7.20898057E+004  3.11165971E+000  -2.52870281E-002   21653.80  <-- SCF
     10  -7.20921364E+004  3.12466017E+000   2.04443723E-002   22265.18  <-- SCF
     11  -7.20904093E+004  3.20334429E+000  -1.51499554E-002   22873.67  <-- SCF
     12  -7.20901232E+004  3.22545506E+000  -2.50925523E-003   23514.83  <-- SCF
     13  -7.20902543E+004  3.22677779E+000   1.14973645E-003   24134.11  <-- SCF
     14  -7.20902459E+004  3.21198208E+000  -7.40259468E-005   24730.16  <-- SCF
     15  -7.20902199E+004  3.21433022E+000  -2.28098807E-004   25322.62  <-- SCF
     16  -7.20903703E+004  3.20972447E+000   1.31996996E-003   25897.15  <-- SCF
     17  -7.20903840E+004  3.21183323E+000   1.19460505E-004   26471.46  <-- SCF
     18  -7.20903474E+004  3.21611873E+000  -3.20804773E-004   27063.03  <-- SCF
     19  -7.20903854E+004  3.21572639E+000   3.33565746E-004   27598.71  <-- SCF
     20  -7.20903905E+004  3.21526179E+000   4.45012356E-005   28085.59  <-- SCF
     21  -7.20903903E+004  3.21479401E+000  -1.93918910E-006   28528.36  <-- SCF
     22  -7.20903907E+004  3.21463640E+000   3.42658603E-006   28957.93  <-- SCF
------------------------------------------------------------------------ <-- SCF
 
Final energy, E             =  -72089.07721313     eV
Final free energy (E-TS)    =  -72090.39065642     eV
(energies not corrected for finite basis set)
 
NB est. 0K energy (E-0.5TS)      =  -72089.73393478     eV
 
 
 ******************************** Constrained Forces ********************************
 *                                                                                  *
 *                           Cartesian components (eV/A)                            *
 * -------------------------------------------------------------------------------- *
 *                         x                    y                    z              *
 *                                                                                  *
 * O               1     -0.03486              0.82671              0.96392         *
 * O               2     -0.69768             -0.44356              0.96269         *
 * O               3      0.73233             -0.38262              0.96317         *
 * O               4     -0.02546             -1.10603             -0.18748         *
 * O               5      0.97035              0.53108             -0.18746         *
 * O               6     -0.94513              0.57490             -0.18765         *
 * O               7      0.02985             -1.01352             -0.07112         *
 * O               8     -0.89266              0.48057             -0.07174         *
 * O               9      0.86251              0.53227             -0.07151         *
 * O              10      0.56044             -0.29838             -0.92940         *
 * O              11     -0.02220              0.63561             -0.92991         *
 * O              12     -0.53876             -0.33674             -0.92958         *
 * O              13     -0.56043              0.29845              0.92866         *
 * O              14      0.53920              0.33670              0.92880         *
 * O              15      0.02248             -0.63558              0.92922         *
 * O              16     -0.02924              1.01321              0.07081         *
 * O              17     -0.86243             -0.53140              0.07121         *
 * O              18      0.89195             -0.48098              0.07161         *
 * O              19     -0.97023             -0.53145              0.18714         *
 * O              20      0.02500              1.10600              0.18715         *
 * O              21      0.94552             -0.57450              0.18729         *
 * O              22     -0.73265              0.38248             -0.96324         *
 * O              23      0.69727              0.44398             -0.96253         *
 * O              24      0.03504             -0.82670             -0.96390         *
 * O              25      0.72298             -0.37842              0.95381         *
 * O              26     -0.03351              0.81671              0.95479         *
 * O              27     -0.68948             -0.43769              0.95352         *
 * O              28     -0.02501             -1.10423             -0.18766         *
 * O              29      0.96859              0.53062             -0.18767         *
 * O              30     -0.94400              0.57369             -0.18787         *
 * O              31      0.03000             -1.01524             -0.07096         *
 * O              32     -0.89422              0.48126             -0.07171         *
 * O              33      0.86389              0.53329             -0.07135         *
 * O              34     -0.02264              0.63560             -0.92927         *
 * O              35     -0.53879             -0.33701             -0.92873         *
 * O              36      0.56080             -0.29847             -0.92870         *
 * O              37     -0.56159              0.29853              0.92890         *
 * O              38      0.53917              0.33763              0.92890         *
 * O              39      0.02295             -0.63632              0.92938         *
 * O              40     -0.86330             -0.53210              0.07144         *
 * O              41      0.89288             -0.48136              0.07173         *
 * O              42     -0.02928              1.01416              0.07100         *
 * O              43      0.94483             -0.57434              0.18761         *
 * O              44     -0.96957             -0.53101              0.18738         *
 * O              45      0.02517              1.10527              0.18738         *
 * O              46      0.68949              0.43761             -0.95357         *
 * O              47      0.03342             -0.81669             -0.95485         *
 * O              48     -0.72293              0.37848             -0.95387         *
 * O              49     -0.03360              0.82028              0.95804         *
 * O              50     -0.69222             -0.43952              0.95643         *
 * O              51      0.72646             -0.38038              0.95724         *
 * O              52     -0.94542              0.57445             -0.18719         *
 * O              53     -0.02501             -1.10588             -0.18706         *
 * O              54      0.97012              0.53138             -0.18705         *
 * O              55     -0.89195              0.48087             -0.07173         *
 * O              56      0.86234              0.53151             -0.07136         *
 * O              57      0.02937             -1.01321             -0.07095         *
 * O              58     -0.02279              0.63635             -0.92934         *
 * O              59     -0.53962             -0.33734             -0.92898         *
 * O              60      0.56127             -0.29855             -0.92887         *
 * O              61      0.53881              0.33676              0.92957         *
 * O              62      0.02218             -0.63566              0.92991         *
 * O              63     -0.56049              0.29841              0.92940         *
 * O              64     -0.86298             -0.53355              0.07158         *
 * O              65      0.89397             -0.48034              0.07184         *
 * O              66     -0.03071              1.01457              0.07121         *
 * O              67      0.94422             -0.57423              0.18783         *
 * O              68     -0.96930             -0.53063              0.18768         *
 * O              69      0.02532              1.10491              0.18768         *
 * O              70     -0.72621              0.38046             -0.95712         *
 * O              71      0.69261              0.43919             -0.95655         *
 * O              72      0.03351             -0.82032             -0.95800         *
 * Na              1     -0.01284             -0.01058              0.02220         *
 * Na              2     -0.00259              0.01633              0.02201         *
 * Na              3      0.01531             -0.00583              0.02190         *
 * Na              4      0.01311              0.01094             -0.02237         *
 * Na              5     -0.01595              0.00574             -0.02208         *
 * Na              6      0.00285             -0.01709             -0.02222         *
 * Na              7     -0.00343              0.01693              0.02229         *
 * Na              8      0.01611             -0.00511              0.02211         *
 * Na              9     -0.01272             -0.01127              0.02242         *
 * Na             10      0.01277              0.01139             -0.02221         *
 * Na             11     -0.01623              0.00508             -0.02187         *
 * Na             12      0.00352             -0.01702             -0.02206         *
 * Na             13     -0.00302              0.01720              0.02212         *
 * Na             14      0.01612             -0.00566              0.02198         *
 * Na             15     -0.01312             -0.01116              0.02225         *
 * Na             16     -0.01543              0.00573             -0.02199         *
 * Na             17      0.00273             -0.01635             -0.02211         *
 * Na             18      0.01280              0.01072             -0.02229         *
 * S               1      0.19243              0.02013              0.10647         *
 * S               2     -0.07848             -0.17654              0.10591         *
 * S               3     -0.11465              0.15748              0.10620         *
 * S               4      0.08023              0.17676             -0.10811         *
 * S               5     -0.19303             -0.01871             -0.10835         *
 * S               6      0.11346             -0.15887             -0.10836         *
 * S               7      0.19007              0.02563              0.10114         *
 * S               8     -0.07276             -0.17740              0.10059         *
 * S               9     -0.11792              0.15272              0.10101         *
 * S              10      0.11598             -0.15734             -0.10614         *
 * S              11      0.07778              0.17808             -0.10576         *
 * S              12     -0.19322             -0.02164             -0.10642         *
 * S              13     -0.11357              0.15897              0.10836         *
 * S              14      0.19319              0.01876              0.10835         *
 * S              15     -0.08023             -0.17690              0.10811         *
 * S              16      0.11660             -0.15294             -0.10110         *
 * S              17      0.07350              0.17592             -0.10074         *
 * S              18     -0.18939             -0.02409             -0.10119         *
 * V               1      0.00001             -0.00002             -0.00006         *
 * V               2     -0.00361              0.00108             -0.00014         *
 * V               3      0.00398             -0.00118              0.00008         *
 * V               4      0.00001              0.00000              0.00009         *
 * V               5     -0.00399              0.00118             -0.00006         *
 * V               6      0.00363             -0.00104              0.00007         *
 *                                                                                  *
 ************************************************************************************
 
 ***************** Stress Tensor *****************
 *                                               *
 *          Cartesian components (GPa)           *
 * --------------------------------------------- *
 *             x             y             z     *
 *                                               *
 *  x     -5.111289      0.000968      0.000928  *
 *  y      0.000968     -5.110215     -0.000407  *
 *  z      0.000928     -0.000407     -5.314802  *
 *                                               *
 *  Pressure:    5.1788                          *
 *                                               *
 *************************************************
  
 +------------+-------------+-------------+-----------------+ <-- min BFGS
 |    Step    |   lambda    |   F.delta'  |    enthalpy     | <-- min BFGS
 +------------+-------------+-------------+-----------------+ <-- min BFGS
 |  previous  |    0.000000 |   10.030343 |   -72087.260766 | <-- min BFGS
 | trial step |    1.000000 |    4.578183 |   -72090.390656 | <-- min BFGS
 +------------+-------------+-------------+-----------------+ <-- min BFGS
  

--------------------------------------------------------------------------------
 BFGS: improving iteration         1 with line minimization (lambda=  1.839701)
--------------------------------------------------------------------------------
 
+---------------- MEMORY AND SCRATCH DISK ESTIMATES PER PROCESS --------------+
|                                                     Memory          Disk    |
| Model and support data                             7827.5 MB         0.0 MB |
| Electronic energy minimisation requirements        3770.7 MB         0.0 MB |
| Geometry minimisation requirements                 4898.9 MB         0.0 MB |
|                                               ----------------------------- |
| Approx. total storage required per process        16497.1 MB         0.0 MB |
|                                                                             |
| Requirements will fluctuate during execution and may exceed these estimates |
+-----------------------------------------------------------------------------+
 
 
                           -------------------------------
                                      Unit Cell
                           -------------------------------
        Real Lattice(A)              Reciprocal Lattice(1/A)
  13.6335612  -0.0000351  -0.0000202        0.4608623   0.2660799   0.0000005
  -6.8168110  11.8070225   0.0000162        0.0000014   0.5321574  -0.0000003
  -0.0000137   0.0000047   9.2059132        0.0000010  -0.0000004   0.6825162
 
                       Lattice parameters(A)       Cell Angles
                    a =   13.633561          alpha =   89.999864
                    b =   13.633587          beta  =   90.000170
                    c =    9.205913          gamma =  120.000233
 
                Current cell volume = 1481.889888 A**3
 
                           -------------------------------
                                     Cell Contents
                           -------------------------------
 
            xxxxxxxxxxxxxxxxxxxxxxxxxxxxxxxxxxxxxxxxxxxxxxxxxxxxxxxxxxxxxxxxx
            x  Element         Atom        Fractional coordinates of atoms  x
            x                 Number           u          v          w      x
            x---------------------------------------------------------------x
            x  O                 1         0.197186   0.565019   0.048455   x
            x  O                 2         0.434982   0.632169   0.048453   x
            x  O                 3         0.367831   0.802814   0.048454   x
            x  O                 4         0.416036   0.183323   0.052749   x
            x  O                 5         0.816677   0.232712   0.052749   x
            x  O                 6         0.767288   0.583964   0.052749   x
            x  O                 7         0.637485   0.044396   0.075987   x
            x  O                 8         0.406912   0.362515   0.075987   x
            x  O                 9         0.955603   0.593087   0.075987   x
            x  O                10         0.007403   0.128689   0.116576   x
            x  O                11         0.871311   0.878715   0.116576   x
            x  O                12         0.121285   0.992596   0.116576   x
            x  O                13         0.659263   0.204644   0.216757   x
            x  O                14         0.545382   0.340737   0.216757   x
            x  O                15         0.795356   0.454618   0.216757   x
            x  O                16         0.029182   0.288937   0.257346   x
            x  O                17         0.711064   0.740246   0.257346   x
            x  O                18         0.259755   0.970818   0.257346   x
            x  O                19         0.849990   0.100621   0.280584   x
            x  O                20         0.250631   0.150010   0.280584   x
            x  O                21         0.899379   0.749369   0.280584   x
            x  O                22         0.298835   0.530520   0.284881   x
            x  O                23         0.231683   0.701165   0.284881   x
            x  O                24         0.469480   0.768315   0.284879   x
            x  O                25         0.034499   0.136146   0.381789   x
            x  O                26         0.863854   0.898354   0.381790   x
            x  O                27         0.101647   0.965501   0.381788   x
            x  O                28         0.082702   0.516656   0.386083   x
            x  O                29         0.483344   0.566047   0.386083   x
            x  O                30         0.433953   0.917298   0.386083   x
            x  O                31         0.304151   0.377731   0.409321   x
            x  O                32         0.073579   0.695849   0.409320   x
            x  O                33         0.622269   0.926421   0.409321   x
            x  O                34         0.537978   0.212048   0.449909   x
            x  O                35         0.787952   0.325929   0.449909   x
            x  O                36         0.674070   0.462022   0.449909   x
            x  O                37         0.325930   0.537978   0.550091   x
            x  O                38         0.212047   0.674070   0.550091   x
            x  O                39         0.462022   0.787952   0.550091   x
[...]
              O 59 -- V 5                    0.34        2.01847
              O 66 -- Na 16                  0.12        2.34851
              O 7  -- Na 3                   0.12        2.34854
              O 57 -- Na 14                  0.12        2.34856
              O 16 -- Na 5                   0.12        2.34857
              O 55 -- Na 15                  0.12        2.34861
              O 33 -- Na 7                   0.12        2.34862
              O 18 -- Na 4                   0.12        2.34862
              O 31 -- Na 8                   0.12        2.34862
              O 56 -- Na 13                  0.12        2.34864
              O 42 -- Na 11                  0.12        2.34865
              O 40 -- Na 12                  0.12        2.34866
              O 65 -- Na 18                  0.12        2.34867
              O 17 -- Na 6                   0.12        2.34867
              O 32 -- Na 9                   0.12        2.34868
              O 64 -- Na 17                  0.12        2.34868
              O 8  -- Na 1                   0.12        2.34870
              O 41 -- Na 10                  0.12        2.34872
              O 9  -- Na 2                   0.12        2.34873
              O 40 -- O 49                  -0.16        2.40953
              O 9  -- O 72                  -0.16        2.40954
              O 7  -- O 70                  -0.16        2.40954
              O 41 -- O 50                  -0.16        2.40956
              O 42 -- O 51                  -0.16        2.40957
              O 8  -- O 71                  -0.16        2.40958
              O 17 -- O 26                  -0.16        2.40958
              O 18 -- O 27                  -0.16        2.40959
              O 24 -- O 33                  -0.17        2.40959
              O 46 -- O 55                  -0.17        2.40960
              O 3  -- O 66                  -0.17        2.40960
              O 47 -- O 56                  -0.17        2.40960
              O 22 -- O 31                  -0.17        2.40960
              O 1  -- O 64                  -0.17        2.40960
              O 16 -- O 25                  -0.16        2.40961
              O 23 -- O 32                  -0.17        2.40962
              O 48 -- O 57                  -0.17        2.40962
              O 2  -- O 65                  -0.17        2.40962
              O 33 -- O 39                  -0.16        2.43191
              O 58 -- O 64                  -0.16        2.43191
              O 60 -- O 66                  -0.16        2.43194
              O 32 -- O 38                  -0.16        2.43194
              O 31 -- O 37                  -0.16        2.43195
              O 11 -- O 17                  -0.16        2.43196
              O 59 -- O 65                  -0.16        2.43197
              O 56 -- O 62                  -0.16        2.43197
              O 9  -- O 15                  -0.16        2.43198
              O 10 -- O 16                  -0.16        2.43198
              O 12 -- O 18                  -0.16        2.43199
              O 34 -- O 40                  -0.16        2.43199
              O 7  -- O 13                  -0.16        2.43199
              O 57 -- O 63                  -0.16        2.43200
              O 35 -- O 41                  -0.16        2.43200
              O 55 -- O 61                  -0.16        2.43201
              O 36 -- O 42                  -0.16        2.43204
              O 8  -- O 14                  -0.16        2.43207
              O 69 -- Na 3                   0.12        2.46925
              O 28 -- Na 5                   0.12        2.46929
              O 53 -- Na 11                  0.12        2.46931
              O 4  -- Na 16                  0.12        2.46933
              O 20 -- Na 8                   0.12        2.46933
              O 67 -- Na 1                   0.12        2.46934
              O 52 -- Na 10                  0.12        2.46936
              O 68 -- Na 2                   0.12        2.46936
              O 30 -- Na 4                   0.12        2.46936
              O 45 -- Na 14                  0.12        2.46937
              O 54 -- Na 12                  0.12        2.46939
              O 21 -- Na 9                   0.12        2.46939
              O 19 -- Na 7                   0.12        2.46941
              O 29 -- Na 6                   0.12        2.46943
              O 43 -- Na 15                  0.12        2.46944
              O 6  -- Na 18                  0.12        2.46944
              O 5  -- Na 17                  0.12        2.46946
              O 44 -- Na 13                  0.12        2.46951
              O 35 -- O 50                  -0.14        2.48021
              O 23 -- O 38                  -0.14        2.48021
              O 46 -- O 61                  -0.14        2.48022
              O 2  -- O 59                  -0.14        2.48023
              O 12 -- O 27                  -0.14        2.48023
              O 14 -- O 71                  -0.14        2.48023
              O 1  -- O 58                  -0.14        2.48024
              O 15 -- O 72                  -0.14        2.48025
              O 34 -- O 49                  -0.14        2.48025
              O 13 -- O 70                  -0.14        2.48025
              O 3  -- O 60                  -0.14        2.48026
              O 24 -- O 39                  -0.14        2.48026
              O 10 -- O 25                  -0.14        2.48026
              O 22 -- O 37                  -0.14        2.48027
              O 47 -- O 62                  -0.14        2.48027
              O 48 -- O 63                  -0.14        2.48027
              O 11 -- O 26                  -0.14        2.48028
              O 36 -- O 51                  -0.14        2.48029
              O 5  -- O 70                  -0.14        2.49558
              O 44 -- O 51                  -0.14        2.49560
              O 4  -- O 71                  -0.14        2.49563
              O 45 -- O 50                  -0.14        2.49564
              O 22 -- O 29                  -0.14        2.49564
              O 19 -- O 25                  -0.14        2.49564
              O 48 -- O 54                  -0.14        2.49565
              O 3  -- O 68                  -0.14        2.49565
              O 43 -- O 49                  -0.14        2.49568
              O 20 -- O 27                  -0.14        2.49569
              O 23 -- O 28                  -0.14        2.49569
              O 6  -- O 72                  -0.14        2.49570
              O 46 -- O 53                  -0.14        2.49570
              O 2  -- O 69                  -0.14        2.49571
              O 21 -- O 26                  -0.14        2.49571
              O 47 -- O 52                  -0.14        2.49574
              O 24 -- O 30                  -0.14        2.49574
              O 1  -- O 67                  -0.14        2.49577
              O 60 -- O 68                  -0.14        2.50896
              O 28 -- O 38                  -0.14        2.50896
              O 29 -- O 37                  -0.14        2.50896
              O 59 -- O 69                  -0.14        2.50897
              O 5  -- O 13                  -0.14        2.50900
              O 10 -- O 19                  -0.14        2.50902
              O 30 -- O 39                  -0.14        2.50902
              O 35 -- O 45                  -0.14        2.50902
              O 36 -- O 44                  -0.14        2.50902
              O 54 -- O 63                  -0.14        2.50903
              O 4  -- O 14                  -0.14        2.50903
              O 12 -- O 20                  -0.14        2.50903
              O 53 -- O 61                  -0.14        2.50903
              O 58 -- O 67                  -0.14        2.50904
              O 11 -- O 21                  -0.14        2.50905
              O 34 -- O 43                  -0.14        2.50907
              O 52 -- O 62                  -0.14        2.50907
              O 6  -- O 15                  -0.14        2.50909
              O 4  -- O 8                   -0.14        2.51533
              O 6  -- O 9                   -0.14        2.51534
              O 42 -- O 44                  -0.14        2.51535
              O 64 -- O 67                  -0.14        2.51535
              O 5  -- O 7                   -0.14        2.51536
              O 65 -- O 69                  -0.14        2.51536
              O 40 -- O 43                  -0.14        2.51537
              O 66 -- O 68                  -0.14        2.51537
              O 41 -- O 45                  -0.14        2.51538
              O 29 -- O 31                  -0.14        2.51542
              O 30 -- O 33                  -0.14        2.51543
              O 53 -- O 55                  -0.14        2.51543
              O 28 -- O 32                  -0.14        2.51544
              O 54 -- O 57                  -0.14        2.51544
              O 52 -- O 56                  -0.14        2.51545
              O 17 -- O 21                  -0.14        2.51548
              O 18 -- O 20                  -0.14        2.51548
              O 16 -- O 19                  -0.14        2.51548
              O 41 -- Na 17                  0.06        2.53207
              O 8  -- Na 13                  0.06        2.53209
              O 18 -- Na 12                  0.06        2.53210
              O 32 -- Na 2                   0.06        2.53210
              O 55 -- Na 7                   0.06        2.53211
              O 42 -- Na 18                  0.06        2.53212
              O 7  -- Na 15                  0.06        2.53213
              O 65 -- Na 6                   0.06        2.53214
              O 31 -- Na 1                   0.06        2.53216
              O 66 -- Na 4                   0.06        2.53217
              O 9  -- Na 14                  0.06        2.53218
              O 16 -- Na 10                  0.06        2.53219
              O 40 -- Na 16                  0.06        2.53220
              O 57 -- Na 9                   0.06        2.53220
              O 33 -- Na 3                   0.06        2.53222
              O 64 -- Na 5                   0.06        2.53222
              O 17 -- Na 11                  0.06        2.53223
              O 56 -- Na 8                   0.06        2.53224
              O 19 -- Na 3                   0.11        2.54506
              O 54 -- Na 16                  0.11        2.54508
              O 29 -- Na 11                  0.11        2.54510
              O 44 -- Na 8                   0.11        2.54511
              O 68 -- Na 14                  0.11        2.54513
              O 5  -- Na 5                   0.11        2.54514
              O 20 -- Na 1                   0.11        2.54515
              O 69 -- Na 15                  0.11        2.54515
              O 53 -- Na 18                  0.11        2.54517
              O 4  -- Na 4                   0.11        2.54518
              O 52 -- Na 17                  0.11        2.54525
              O 21 -- Na 2                   0.11        2.54526
              O 28 -- Na 10                  0.11        2.54527
              O 45 -- Na 9                   0.11        2.54529
              O 67 -- Na 13                  0.11        2.54531
              O 6  -- Na 6                   0.11        2.54531
              O 30 -- Na 12                  0.11        2.54533
              O 43 -- Na 7                   0.11        2.54535
              O 2  -- O 22                  -0.02        2.72639
              O 3  -- O 23                  -0.03        2.72643
              O 1  -- O 22                  -0.03        2.72643
              O 51 -- O 71                  -0.03        2.72646
              O 3  -- O 24                  -0.02        2.72647
              O 2  -- O 24                  -0.03        2.72647
              O 27 -- O 48                  -0.02        2.72648
              O 25 -- O 46                  -0.03        2.72650
              O 51 -- O 72                  -0.02        2.72650
              O 25 -- O 47                  -0.02        2.72651
              O 50 -- O 70                  -0.02        2.72651
              O 26 -- O 48                  -0.03        2.72652
              O 49 -- O 70                  -0.03        2.72654
              O 1  -- O 23                  -0.02        2.72655
              O 49 -- O 71                  -0.02        2.72658
              O 26 -- O 46                  -0.02        2.72660
              O 27 -- O 47                  -0.02        2.72662
              O 50 -- O 72                  -0.02        2.72663
              O 31 -- Na 10                  0.02        2.74089
              O 18 -- Na 2                   0.02        2.74090
              O 42 -- Na 9                   0.02        2.74091
              O 8  -- Na 6                   0.02        2.74093
              O 55 -- Na 17                  0.02        2.74094
              O 65 -- Na 13                  0.02        2.74095
              O 32 -- Na 12                  0.02        2.74098
              O 41 -- Na 7                   0.02        2.74099
              O 16 -- Na 1                   0.02        2.74102
              O 57 -- Na 18                  0.02        2.74106
              O 9  -- Na 5                   0.02        2.74108
              O 7  -- Na 4                   0.02        2.74109
              O 17 -- Na 3                   0.02        2.74109
              O 40 -- Na 8                   0.02        2.74112
              O 66 -- Na 15                  0.02        2.74112
              O 33 -- Na 11                  0.02        2.74112
              O 64 -- Na 14                  0.02        2.74114
              O 56 -- Na 16                  0.02        2.74114
              O 12 -- Na 2                  -0.00        2.75012
              O 35 -- Na 7                  -0.00        2.75012
              O 61 -- Na 17                 -0.00        2.75016
              O 38 -- Na 12                 -0.00        2.75018
              O 14 -- Na 6                  -0.00        2.75020
              O 36 -- Na 9                  -0.00        2.75024
              O 15 -- Na 5                  -0.00        2.75026
              O 37 -- Na 10                 -0.00        2.75027
              O 13 -- Na 4                  -0.00        2.75028
              O 10 -- Na 1                  -0.00        2.75028
              O 59 -- Na 13                 -0.00        2.75028
              O 63 -- Na 18                 -0.00        2.75032
              O 58 -- Na 14                 -0.00        2.75033
              O 60 -- Na 15                 -0.00        2.75035
              O 34 -- Na 8                  -0.00        2.75036
              O 39 -- Na 11                 -0.00        2.75037
              O 11 -- Na 3                  -0.00        2.75037
              O 62 -- Na 16                 -0.00        2.75038
              O 14 -- O 36                  -0.03        2.75989
              O 12 -- O 63                  -0.03        2.75994
              O 14 -- O 34                  -0.03        2.75995
              O 13 -- O 35                  -0.03        2.75995
              O 10 -- O 61                  -0.03        2.75997
              O 11 -- O 61                  -0.03        2.76000
              O 15 -- O 35                  -0.03        2.76001
              O 12 -- O 62                  -0.03        2.76004
              O 38 -- O 60                  -0.03        2.76007
              O 39 -- O 59                  -0.03        2.76008
              O 37 -- O 59                  -0.03        2.76008
              O 15 -- O 36                  -0.03        2.76011
              O 10 -- O 62                  -0.03        2.76013
              O 13 -- O 34                  -0.03        2.76013
              O 11 -- O 63                  -0.03        2.76015
              O 38 -- O 58                  -0.03        2.76018
              O 37 -- O 58                  -0.03        2.76026
              O 39 -- O 60                  -0.03        2.76031
              O 49 -- O 51                  -0.02        2.86573
              O 71 -- O 72                  -0.02        2.86573
              O 70 -- O 72                  -0.02        2.86577
              O 1  -- O 2                   -0.02        2.86577
              O 22 -- O 24                  -0.02        2.86577
              O 25 -- O 26                  -0.02        2.86579
              O 1  -- O 3                   -0.02        2.86579
              O 46 -- O 47                  -0.02        2.86580
              O 47 -- O 48                  -0.02        2.86581
              O 49 -- O 50                  -0.02        2.86581
              O 26 -- O 27                  -0.02        2.86581
              O 23 -- O 24                  -0.02        2.86584
              O 70 -- O 71                  -0.02        2.86603
              O 2  -- O 3                   -0.02        2.86606
              O 50 -- O 51                  -0.02        2.86608
              O 46 -- O 48                  -0.02        2.86610
              O 25 -- O 27                  -0.02        2.86611
              O 22 -- O 23                  -0.02        2.86611
              O 34 -- O 36                  -0.02        2.94527
              O 13 -- O 15                  -0.02        2.94533
              O 37 -- O 39                  -0.02        2.94538
              O 62 -- O 63                  -0.02        2.94538
              O 14 -- O 15                  -0.02        2.94538
              O 10 -- O 11                  -0.02        2.94539
              O 58 -- O 60                  -0.02        2.94541
              O 34 -- O 35                  -0.02        2.94545
              O 61 -- O 62                  -0.02        2.94546
              O 11 -- O 12                  -0.02        2.94548
              O 58 -- O 59                  -0.02        2.94549
              O 13 -- O 14                  -0.02        2.94557
              O 38 -- O 39                  -0.02        2.94558
              O 35 -- O 36                  -0.02        2.94564
              O 59 -- O 60                  -0.02        2.94567
              O 61 -- O 63                  -0.02        2.94567
              O 10 -- O 12                  -0.02        2.94570
              O 37 -- O 38                  -0.02        2.94575
              O 54 -- O 68                  -0.02        2.95597
              O 5  -- O 19                  -0.02        2.95600
              O 52 -- O 67                  -0.02        2.95602
              O 29 -- O 44                  -0.02        2.95604
              O 53 -- O 69                  -0.02        2.95605
              O 30 -- O 43                  -0.02        2.95606
              O 6  -- O 21                  -0.02        2.95606
              O 4  -- O 20                  -0.02        2.95609
              O 28 -- O 45                  -0.02        2.95610
======================================================================
 

Writing analysis data to 75220.castep_bin

Writing model to 75220.check
 
 A BibTeX formatted list of references used in this run has been written to 
 75220.bib
 
Initialisation time =     41.84 s
Calculation time    =  15880.39 s
Finalisation time   =     20.64 s
Total time          =  15942.87 s
Peak Memory Use     = 13756484 kB
  
Overall parallel efficiency rating: Excellent (99%)                             
  
Data was distributed by:-
k-point (3-way); efficiency rating: Excellent (99%)                             
